ITEM: TIMESTEP
150
ITEM: NUMBER OF ATOMS
250
ITEM: BOX BOUNDS pp pp pp
0.0000000000000000e+00 1.6520000000000000e+01
0.0000000000000000e+00 1.6520000000000000e+01
0.0000000000000000e+00 1.6520000000000000e+01
ITEM: ATOMS id type x y z vx vy vz
1 1 16.5012 16.4543 16.4768 -1.05009 -0.379648 0.377869
2 1 1.67025 1.71257 1.69443 -0.571508 -0.689264 0.854391
3 1 3.23359 0.0209172 16.5161 0.0492249 -1.47965 1.01986
4 1 5.06097 1.63305 1.51511 -0.97212 -2.04877 -0.584511
5 1 6.7002 0.0169014 16.3764 -0.547764 -0.827283 2.38398
6 1 8.36912 1.68179 1.65464 -0.907156 -1.93107 2.10995
7 1 9.96359 16.4521 16.4266 0.273171 -2.15191 1.3357
8 1 11.5648 1.65865 1.59186 -1.459 1.36707 -1.5331
9 1 13.2578 0.0462138 16.504 1.34434 -1.05081 0.602358
10 1 14.8905 1.6326 1.60158 1.17233 -0.215943 -0.492909
11 1 0.0123797 3.3164 0.0320239 0.640695 0.0746732 1.33051
12 1 1.65703 4.90119 1.6472 1.47269 1.40378 -0.0747452
13 1 3.30689 3.26643 16.427 0.545776 -0.0374701 -3.12479
14 1 5.06203 4.89403 1.7392 -0.609249 0.676928 -0.839975
15 1 6.68095 3.17335 16.4109 -1.2319 -1.03859 -0.220364
16 1 8.34066 4.94998 1.6841 -1.93909 0.499006 -0.856858
17 1 9.92002 3.34803 0.0513486 -0.850854 -0.417961 -0.155929
18 1 11.6278 5.07553 1.6727 -0.349281 -0.201973 -0.289488
19 1 13.2524 3.29382 0.033652 -0.918353 -1.88292 -1.25396
20 1 14.8296 4.94056 1.64328 0.358572 -1.30527 0.478156
21 1 0.00398116 6.5612 16.4252 0.584519 -1.99613 0.531879
22 1 1.64706 8.25706 1.63424 1.31311 0.861213 -0.705936
23 1 3.34651 6.60745 0.00354286 -0.152653 -0.673069 -2.20207
24 1 4.97746 8.22263 1.78115 -0.747074 0.251049 0.160904
25 1 6.65347 6.61954 0.131431 -1.66055 1.52514 0.351475
26 1 8.26594 8.23753 1.8079 1.17841 3.01585 -2.29539
27 1 9.88622 6.74288 0.0206853 -0.444008 1.92178 1.76104
28 1 11.6391 8.37435 1.61142 1.16386 -0.694587 1.3689
29 1 13.177 6.59577 16.5195 -0.978663 -0.284587 -0.645674
30 1 14.9636 8.28503 1.58471 0.691456 0.754892 -0.202307
31 1 0.0329636 9.92399 0.0579199 0.94628 0.330967 -0.765236
32 1 1.5625 11.6084 1.64347 -0.0823843 0.674527 0.565134
33 1 3.37794 9.92637 0.0410663 -0.047378 2.2968 -0.184092
34 1 4.80282 11.5874 1.71839 -1.21748 0.259758 1.14465
35 1 6.56212 9.93337 0.115019 -0.967618 1.91982 -0.734321
36 1 8.19068 11.5815 1.68653 -0.509236 0.0837606 -0.616528
37 1 9.86442 9.85637 0.101304 -0.269888 0.676684 0.532758
38 1 11.5645 11.6353 1.65003 1.79078 -1.39215 0.39657
39 1 13.2955 9.98233 16.4618 0.121494 -0.21316 -1.43386
40 1 14.8268 11.6059 1.58337 2.01074 1.46168 -1.26768
41 1 0.0250167 13.1566 0.022641 0.850132 -0.0164267 -1.99513
42 1 1.58926 14.8043 1.74557 -0.11681 0.892813 0.850683
43 1 3.27618 13.2103 0.00241258 -1.62958 0.0548235 -1.70509
44 1 4.94798 14.9777 1.6921 -2.77167 0.0667714 0.990119
45 1 6.5189 13.1684 0.0185879 -0.190118 -0.287731 0.0138721
46 1 8.25513 14.942 1.572 -0.486321 -1.09587 2.17134
47 1 9.97853 13.2703 16.2981 -1.83727 0.875838 2.33135
48 1 11.5131 14.9443 1.56881 -2.08704 -0.781055 1.93606
49 1 13.1814 13.2911 16.4596 1.31735 -1.56957 0.217354
50 1 14.8869 14.9383 1.63986 2.70655 -1.19406 0.552013
51 1 16.4687 0.147006 3.2703 2.09537 1.70347 1.87612
52 1 1.85305 1.69616 4.91405 -0.233417 -0.926391 1.81271
53 1 3.36963 0.0506349 3.26259 -1.68328 -0.0624165 -0.373049
54 1 5.08323 1.63495 4.99421 1.27323 -0.397547 0.920086
55 1 6.67711 0.126969 3.22786 -2.11486 -0.0464678 -1.03409
56 1 8.29778 1.68871 4.9525 -0.625172 0.115387 2.23244
57 1 9.90878 0.0294658 3.3145 -0.228652 0.708663 0.606843
58 1 11.6351 1.54195 4.92078 0.0400093 1.32561 -0.634062
59 1 13.198 16.4323 3.22306 0.702544 -0.671655 2.30326
60 1 14.8444 1.7096 4.89828 0.280855 -0.544782 -0.39846
61 1 0.0267795 3.30741 3.35898 -0.296831 0.855528 0.288051
62 1 1.71135 4.85282 4.93769 0.128737 2.0635 2.48363
63 1 3.41306 3.32499 3.19571 -0.856699 1.32143 1.41175
64 1 4.93809 4.90752 4.96527 -0.658917 1.44596 0.915382
65 1 6.70051 3.31288 3.28802 -0.367261 0.805137 1.2309
66 1 8.37708 4.89286 4.98663 -0.677305 -0.322076 -0.580667
67 1 10.0225 3.4053 3.36152 -1.38048 0.878157 -0.810475
68 1 11.6497 5.02893 4.99333 -0.367074 0.622331 0.5432
69 1 13.2303 3.30638 3.28577 -2.78621 0.278709 0.0250432
70 1 14.9376 4.97128 4.9327 1.73033 0.878756 0.402054
71 1 0.0339608 6.61327 3.28263 -1.12557 -1.58349 -0.736521
72 1 1.72086 8.32194 5.00792 -0.842353 -1.08164 0.542238
73 1 3.27123 6.53535 3.32974 -1.35907 0.736138 -0.989256
74 1 4.97099 8.18659 5.02321 1.37998 -0.404368 -0.605967
75 1 6.69812 6.45961 3.42768 -0.181729 -1.17237 -1.16322
76 1 8.42427 8.25936 4.98886 -1.40647 0.741222 -0.696315
77 1 9.91669 6.6242 3.33413 -1.02439 -1.01136 0.124835
78 1 11.6554 8.2425 5.03776 0.0201091 -0.907519 0.262889
79 1 13.284 6.66903 3.28801 -0.647552 0.582371 1.14531
80 1 15.0281 8.29241 4.88416 -0.69341 -1.16098 -0.0663746
81 1 16.473 9.91627 3.24952 -0.639375 -1.70848 0.610962
82 1 1.58561 11.6992 4.85864 -1.77296 -0.0767868 1.33008
83 1 3.23988 9.92107 3.33593 -1.55775 0.82646 -0.238972
84 1 5.02701 11.5721 4.86201 -0.957422 -0.375192 1.15985
85 1 6.56222 9.82776 3.41307 -1.0372 0.164637 -1.01285
86 1 8.24936 11.4871 5.02809 0.0260311 1.0619 -0.0459949
87 1 9.82117 9.86295 3.34772 1.076 -2.04164 0.340332
88 1 11.5394 11.5268 5.02025 1.39183 -0.085792 0.331373
89 1 13.1765 9.88542 3.30106 0.37928 -1.08964 -0.916766
90 1 14.719 11.6227 4.99048 2.66206 -0.336149 0.510096
91 1 16.3684 13.1516 3.3394 -1.05629 -1.77152 2.95371
92 1 1.6825 14.8761 4.87333 0.419705 -0.0944276 -1.28179
93 1 3.24893 13.2488 3.28283 -0.771934 -1.67878 2.41505
94 1 4.92138 14.8786 4.96999 -0.259729 -0.463679 -0.614794
95 1 6.50864 13.3407 3.31078 0.820564 -2.57089 -0.858547
96 1 8.33356 14.8718 4.93751 0.437696 -0.527271 0.431128
97 1 9.72157 13.2356 3.30718 0.191253 0.21437 -1.24899
98 1 11.4447 14.7703 5.06763 -1.34996 -1.13389 1.94823
99 1 12.9946 13.2983 3.24694 0.392737 -0.588499 -0.709977
100 1 14.7679 14.9104 4.90328 1.69181 -1.56616 0.91639
101 1 0.0721462 0.0638754 6.60529 -0.803629 -0.876638 -0.998333
102 1 1.72391 1.57986 8.30496 2.07529 -1.61625 0.863806
103 1 3.31524 16.4697 6.57083 0.013894 -0.440207 -0.0198336
104 1 4.82442 1.63579 8.28993 1.53915 -1.98954 1.12767
105 1 6.64475 0.10403 6.62827 0.122328 -1.15624 0.00920975
106 1 8.2183 1.72989 8.21498 -0.447884 -0.37821 -1.33673
107 1 9.93048 0.0290379 6.5635 1.76551 0.327752 0.173211
108 1 11.6335 1.72333 8.17445 -2.06047 0.567577 -0.840486
109 1 13.1874 16.5035 6.57229 -0.974988 -0.126589 -2.23846
110 1 14.9991 1.58347 8.29888 -0.222175 -0.243456 1.41577
111 1 0.058079 3.15048 6.56664 -1.23289 -0.20023 0.469747
112 1 1.51987 5.04124 8.26811 -1.61077 0.492262 0.761588
113 1 3.34568 3.32889 6.58057 2.37756 1.42975 2.67035
114 1 4.87584 4.99145 8.18976 0.184238 0.374085 0.204868
115 1 6.49071 3.29856 6.62236 0.12178 -0.99813 0.553785
116 1 8.09008 5.02871 8.33463 -0.338957 1.50167 0.21049
117 1 9.96593 3.2953 6.59008 -0.275063 -0.14583 -0.215007
118 1 11.6207 4.95997 8.22677 -0.0454502 -0.28033 -2.01997
119 1 13.3031 3.24566 6.55966 0.621464 -0.729708 0.826618
120 1 14.8792 4.84384 8.23948 -0.45634 1.08319 -1.34039
121 1 0.0255422 6.6951 6.58079 0.673986 2.48137 0.141368
122 1 1.67726 8.32967 8.23233 0.294474 -0.684779 1.52811
123 1 3.22431 6.54869 6.61784 1.07303 0.580946 1.3823
124 1 4.98238 8.31226 8.22604 1.51075 2.56213 -0.0171588
125 1 6.75507 6.53334 6.55745 -0.26138 1.68789 -1.14453
126 1 8.32693 8.15933 8.41406 -1.22354 0.0976649 0.582306
127 1 9.92543 6.48705 6.57816 -0.77012 1.3464 0.428486
128 1 11.6147 8.20972 8.21744 -1.78157 1.19584 0.526922
129 1 13.3625 6.63089 6.56628 -2.06531 1.0666 -0.612723
130 1 14.8006 8.32308 8.28735 1.1724 0.171076 2.38054
131 1 0.0580419 9.94595 6.5188 1.63714 0.30234 1.56937
132 1 1.70134 11.6713 8.07061 -1.17875 -0.141005 1.06139
133 1 3.40714 10.0129 6.44901 0.296477 -2.27679 0.414557
134 1 4.99181 11.533 8.25995 0.354492 0.353222 0.257187
135 1 6.70384 9.78543 6.72945 -2.04069 1.48161 0.487731
136 1 8.22757 11.4529 8.39248 0.630966 -0.302285 -1.41254
137 1 9.89703 9.85346 6.69399 0.685934 -1.23431 -1.75752
138 1 11.5164 11.4662 8.28135 0.278796 1.60379 -2.39467
139 1 13.1563 9.87607 6.65303 1.38789 -1.3314 0.51502
140 1 14.7524 11.5733 8.25029 1.95525 0.46419 1.76474
141 1 16.4613 13.2132 6.56378 -0.188981 -0.84183 1.70102
142 1 1.65207 14.9056 8.36908 -1.23627 1.61439 0.690522
143 1 3.37023 13.2301 6.5145 -1.11848 -0.453573 2.12196
144 1 4.97869 14.8149 8.19848 0.408726 -0.6099 -0.67658
145 1 6.67726 13.2728 6.58828 -2.17016 0.00626657 0.389465
146 1 8.28986 14.8814 8.2817 -0.563002 -1.39298 -0.366856
147 1 9.77122 13.2037 6.7282 0.00349935 0.360685 0.737982
148 1 11.5902 14.8737 8.33493 0.221917 -1.71615 -0.273366
149 1 13.1434 13.1741 6.67642 2.05142 -0.554773 -2.48517
150 1 14.8419 14.8173 8.26281 -1.07222 0.661384 1.10834
151 1 0.0427411 16.4096 10.0029 0.528821 1.36064 0.699781
152 1 1.55566 1.62772 11.6386 2.50797 0.81759 -0.19925
153 1 3.32333 0.00292566 10.0713 -0.324611 0.772947 -0.246199
154 1 4.80636 1.60859 11.6274 1.55254 -0.566943 -1.32626
155 1 6.64219 0.0227723 9.86614 1.45013 -0.485551 0.151915
156 1 8.11151 1.66749 11.3844 -0.637765 -0.200826 0.694111
157 1 9.89715 0.0461259 9.91219 -0.414198 -2.61193 -0.21867
158 1 11.596 1.73213 11.441 -0.938976 1.09587 0.186151
159 1 13.2072 16.4691 9.84202 -0.79684 0.0133614 2.12743
160 1 14.8524 1.60111 11.6169 -1.82475 0.540372 0.527705
161 1 16.5168 3.27519 10.012 0.692943 0.166862 -0.421975
162 1 1.48389 5.06878 11.6093 -1.28786 -1.68132 -2.23071
163 1 3.21855 3.28121 9.94501 3.49627 -0.109202 -1.81971
164 1 4.78816 4.91813 11.5714 1.36307 -1.68846 -0.9737
165 1 6.37482 3.35731 10.0115 1.82549 -0.832615 -3.43165
166 1 8.08934 4.91071 11.523 1.56683 -0.19158 0.176869
167 1 9.89769 3.37551 9.76405 -1.85952 -0.853375 -3.8035
168 1 11.432 4.93809 11.5524 -1.55168 -0.542577 -1.71327
169 1 13.2635 3.22613 9.90227 -0.210873 -0.598104 -0.822245
170 1 14.8324 5.03509 11.47 -1.481 -2.04122 -0.947108
171 1 16.4349 6.74859 9.97385 1.69007 -0.94869 -1.12163
172 1 1.63823 8.38008 11.546 0.471551 -1.99718 0.385259
173 1 3.17758 6.58491 9.93596 0.534626 1.48795 1.61244
174 1 4.93026 8.26331 11.5587 2.3296 -0.678648 -1.05234
175 1 6.45207 6.46899 10.0343 3.24466 1.95832 -0.8952
176 1 8.3278 8.15746 11.6366 2.1955 0.632904 0.831011
177 1 9.84304 6.48593 10.0027 -0.74995 1.71231 0.118755
178 1 11.4907 8.19316 11.6073 -0.859545 1.4451 -0.962502
179 1 13.04 6.57802 9.95877 -0.137249 1.0425 0.615292
180 1 14.8248 8.38196 11.5826 -1.4414 0.476496 1.83205
181 1 0.101563 9.9908 9.72412 -1.24723 -0.533403 -0.0310548
182 1 1.71889 11.5491 11.3617 -1.04981 0.54444 -0.176709
183 1 3.37541 9.8913 9.73609 0.526734 -0.635052 1.54532
184 1 4.9834 11.4616 11.5081 -2.3331 1.82021 -1.60722
185 1 6.73104 9.87113 9.95281 1.68689 0.277664 0.341677
186 1 8.28971 11.5431 11.6079 2.31413 0.558082 1.06212
187 1 9.88484 9.83827 10.0097 1.40549 2.1631 0.184323
188 1 11.566 11.6226 11.6055 -0.684223 1.03386 -1.01762
189 1 13.1738 9.94863 9.97952 1.28665 0.835542 -0.734246
190 1 14.9838 11.512 11.498 -0.833524 0.549146 -0.341489
191 1 0.140399 13.1865 9.88076 -1.12888 -0.0224581 1.2086
192 1 1.79072 14.8128 11.673 -1.37227 0.331178 0.34497
193 1 3.36774 13.2999 9.85572 -1.52458 0.907576 -0.418219
194 1 4.96194 14.8368 11.5698 -0.395836 -0.339382 -0.55662
195 1 6.62956 13.2243 9.97006 -0.18545 -0.0444514 0.987122
196 1 8.22848 14.8827 11.4601 1.21911 0.428614 0.938705
197 1 9.90284 13.1725 9.99754 -0.206715 0.960217 -1.68775
198 1 11.6579 14.8931 11.4898 -0.325935 -2.30317 0.263829
199 1 13.1537 13.0756 9.84078 -0.931136 -0.163854 0.153973
200 1 14.9506 14.7482 11.483 -0.0932313 0.849213 -0.12118
201 1 16.4736 16.4113 13.34 0.675093 -0.407979 0.515965
202 1 1.61496 1.6601 14.9818 0.80354 -0.446319 -0.843337
203 1 3.30242 0.034436 13.3087 0.0389249 0.287657 -1.76028
204 1 4.96925 1.65572 14.8004 0.575903 1.08735 0.791749
205 1 6.55347 16.4599 13.2263 0.890657 1.29816 1.08285
206 1 8.27949 1.58576 14.7151 0.307904 0.171045 1.38497
207 1 9.96812 0.0645425 12.9978 0.325701 0.260273 -0.00760559
208 1 11.614 1.57887 14.783 -0.902201 0.504069 0.536664
209 1 13.2552 16.4471 13.1054 -1.33665 1.01394 -0.0261694
210 1 14.8474 1.76696 14.9135 0.845913 0.187741 0.843322
211 1 16.4504 3.30484 13.2798 0.898235 0.568852 -1.49086
212 1 1.5869 4.94599 14.881 0.202017 0.439516 0.72009
213 1 3.21605 3.35201 13.2212 1.36595 -0.397171 -1.39499
214 1 4.94957 4.88551 14.8209 1.32946 0.270111 -0.161904
215 1 6.55523 3.3488 13.1886 1.35149 -0.189595 -0.197962
216 1 8.29538 5.05549 14.931 -1.03871 -0.635848 1.93611
217 1 9.8521 3.37899 13.2051 0.21911 -0.782258 2.08062
218 1 11.4234 4.95088 14.9573 -0.0271854 0.995812 -0.834834
219 1 13.1821 3.37435 13.1943 0.522253 -0.387305 0.602595
220 1 14.7687 5.03546 14.8324 0.162563 -0.865994 0.976867
221 1 16.4191 6.69901 13.2404 1.74482 -1.68803 -0.569621
222 1 1.67939 8.23542 15.0005 1.29516 1.04363 0.0275599
223 1 3.26858 6.56853 13.2105 0.586252 -0.703629 -0.399962
224 1 5.00578 8.24754 14.9409 0.0310526 0.736471 -1.93056
225 1 6.54481 6.59228 13.3119 -0.0206026 0.322493 -2.04447
226 1 8.27842 8.3074 14.9317 0.436228 -0.388237 -2.79921
227 1 9.75938 6.59996 13.2755 0.908233 -0.0919124 -0.99559
228 1 11.6268 8.29823 14.9002 3.00746 0.0613786 -0.652906
229 1 13.1584 6.57713 13.2036 0.930017 -2.43746 1.28971
230 1 14.8223 8.26438 14.8999 0.256646 0.96153 -2.22463
231 1 0.0590368 9.87948 13.3097 0.278273 1.42909 -0.615311
232 1 1.67572 11.4638 14.9173 0.895168 0.537647 -1.27486
233 1 3.28294 9.92641 13.1659 -0.461335 2.53565 -0.256526
234 1 4.96671 11.4564 14.7942 1.47174 -0.210324 -1.42796
235 1 6.65773 9.78295 13.2627 -0.499858 0.890337 -3.04991
236 1 8.30916 11.6426 14.982 -1.44887 -0.823719 -0.245905
237 1 9.93929 9.94271 13.2859 0.35322 -0.14375 -2.40723
238 1 11.5747 11.5644 14.8378 -0.472132 0.583211 1.06513
239 1 13.3599 9.92023 13.1914 -0.726626 -0.452099 0.434404
240 1 14.9621 11.6402 14.9161 -2.55408 0.0370326 -0.892588
241 1 0.0111463 13.177 13.2502 -0.23169 0.674159 -1.14235
242 1 1.70928 14.8505 14.9546 -0.455157 1.76498 -0.575129
243 1 3.27775 13.1131 13.2219 -0.723816 -0.343005 -0.377093
244 1 4.88182 14.7661 14.9338 -1.20115 -1.0935 -2.6341
245 1 6.56077 13.2105 13.1731 0.276712 0.677468 -0.158011
246 1 8.26572 14.9103 14.7814 2.02959 0.518215 0.827085
247 1 9.96183 13.3184 13.2513 -0.975462 -1.15922 -1.51175
248 1 11.6361 15.0007 14.6889 0.780085 -1.21241 1.80053
249 1 13.2772 13.2425 13.1929 -1.03207 -0.19263 0.329727
250 1 14.8995 14.843 14.8985 0.821804 0.372997 1.37448
