ITEM: TIMESTEP
540
ITEM: NUMBER OF ATOMS
250
ITEM: BOX BOUNDS pp pp pp
0.0000000000000000e+00 1.6520000000000000e+01
0.0000000000000000e+00 1.6520000000000000e+01
0.0000000000000000e+00 1.6520000000000000e+01
ITEM: ATOMS id type x y z vx vy vz
1 1 0.0671169 16.4688 16.445 -1.09878 -2.59606 -1.37958
2 1 1.58198 1.67634 1.70552 -0.0613449 0.304231 -0.32163
3 1 3.29513 16.4341 0.0604819 0.793552 -0.924661 -1.62721
4 1 4.90658 1.58002 1.56807 0.631204 -2.39843 0.05708
5 1 6.56789 16.4302 0.0279361 -1.04929 0.446661 -1.12644
6 1 8.15174 1.67433 1.71153 0.0917536 1.34574 0.602144
7 1 9.88833 16.4986 0.11908 0.33526 -0.886239 -0.222136
8 1 11.4963 1.61489 1.71787 0.346937 1.43306 -1.7747
9 1 13.1432 0.0747119 0.0279028 0.309385 -2.01388 -2.09218
10 1 14.8289 1.64097 1.61258 0.973907 1.26457 0.0924412
11 1 0.110426 3.23236 16.4564 0.947789 -0.457352 0.573474
12 1 1.55893 4.97553 1.60515 0.395015 -0.677494 -0.135663
13 1 3.27538 3.24808 0.0948237 -1.1208 -0.214197 -1.44127
14 1 4.87527 5.00184 1.66016 -2.16779 0.156459 1.18436
15 1 6.5041 3.33322 0.0839021 0.259027 0.83456 2.98271
16 1 8.21667 4.91939 1.58634 0.797222 -0.475036 1.82118
17 1 9.85293 3.2275 0.132235 -1.28795 0.982577 -1.02184
18 1 11.5328 4.82914 1.57882 0.564265 -1.10775 -2.29734
19 1 13.2595 3.25156 0.00521389 2.08393 1.17287 -1.65542
20 1 14.8642 4.88284 1.70112 -1.93558 0.314368 1.57224
21 1 16.4748 6.63204 16.4872 -0.356947 2.13194 1.9382
22 1 1.59062 8.20376 1.75666 -0.76181 3.07985 0.146334
23 1 3.35009 6.6934 0.0779012 -0.926419 -0.665759 0.818769
24 1 4.92234 8.24446 1.56147 0.920475 -0.82545 0.837369
25 1 6.55413 6.5844 16.4816 -0.173161 -1.34914 0.0909494
26 1 8.32031 8.21462 1.49399 1.32045 -1.05926 0.34217
27 1 9.97681 6.57022 16.3677 1.8348 0.972315 1.26518
28 1 11.4189 8.14678 1.63177 -0.5424 -0.187156 0.927238
29 1 13.2688 6.54469 0.0545896 -0.441399 -0.300301 1.60596
30 1 14.8049 8.32464 1.75404 0.229437 -0.227427 0.655275
31 1 16.4817 9.89741 0.0764278 -0.592145 1.78517 0.886217
32 1 1.69239 11.4937 1.58329 1.57432 0.814967 3.03106
33 1 3.30819 9.84655 16.4705 -0.60882 -0.696309 1.55902
34 1 4.95683 11.5019 1.58215 -0.239045 -0.823215 1.33017
35 1 6.59214 9.92266 16.3132 0.722565 1.16627 0.187662
36 1 8.20817 11.5521 1.64211 1.01251 1.66244 0.249626
37 1 9.95631 9.87455 16.4626 -1.05377 -0.0254467 -0.205355
38 1 11.5351 11.5483 1.71963 0.770398 2.12524 -1.03703
39 1 13.1537 9.94899 16.4796 1.10371 0.754794 -1.23759
40 1 14.8722 11.5759 1.65184 0.810717 1.22137 -0.464964
41 1 0.0723562 13.2526 0.0582085 -1.0814 0.861363 0.680409
42 1 1.69055 14.7951 1.64917 0.955807 0.276105 -0.482005
43 1 3.283 13.2368 0.0158778 0.681277 0.168085 0.168464
44 1 4.98863 14.7904 1.60835 -0.617249 -0.304809 -0.796484
45 1 6.62119 13.1741 16.5136 -1.40153 -0.178988 -1.65421
46 1 8.30273 14.773 1.72576 0.628589 0.451722 -1.86616
47 1 10.012 13.0494 16.455 -0.0787959 1.11763 -1.69467
48 1 11.5738 14.7679 1.78736 1.21097 2.47916 2.84493
49 1 13.2671 13.1047 0.0567939 -1.33084 -1.05148 -0.120204
50 1 14.8669 14.834 1.69655 -0.941382 -0.599037 0.534977
51 1 0.00359183 16.5048 3.29553 -2.28567 1.17743 -0.36378
52 1 1.55296 1.65657 4.96744 -0.235797 0.471524 -2.24243
53 1 3.28474 16.4363 3.35211 2.29801 1.24994 -0.94708
54 1 4.8941 1.60174 4.97121 2.08518 -0.384821 -0.494125
55 1 6.57169 16.4476 3.31536 2.86855 0.254416 1.60219
56 1 8.20804 1.65279 4.94024 -0.802098 1.01378 1.06213
57 1 9.84421 16.4903 3.30824 -0.211908 1.10173 0.50216
58 1 11.6119 1.61307 5.06161 1.4486 1.34216 0.0875543
59 1 13.2691 0.0428902 3.35083 -2.41765 0.0300946 0.46279
60 1 14.7637 1.66227 5.05313 -0.0509938 -1.67882 0.954085
61 1 16.4351 3.22509 3.30768 -1.36035 -1.17362 -1.03481
62 1 1.59701 4.88811 4.91221 0.239283 0.201513 0.474586
63 1 3.24442 3.35929 3.30075 -0.0599602 0.412978 0.556131
64 1 4.96215 5.01047 4.89487 0.602054 -1.12226 0.640811
65 1 6.52507 3.27061 3.38316 0.602833 -0.626731 1.1799
66 1 8.25208 4.96311 5.03128 0.956993 -1.3622 2.3305
67 1 9.87689 3.2776 3.28802 -1.37156 -0.0450918 0.432858
68 1 11.4342 4.98801 5.10828 0.755722 0.857701 -0.469519
69 1 13.1893 3.34798 3.37423 1.03473 -0.549426 -1.96179
70 1 14.7745 4.96766 4.90246 -0.896064 1.25661 1.1927
71 1 16.4429 6.63493 3.29342 0.0668694 1.71867 -0.182337
72 1 1.61592 8.24116 5.00706 0.359599 0.77991 -0.137449
73 1 3.29364 6.66366 3.30493 1.94056 1.24977 0.711424
74 1 4.86527 8.26183 4.91633 0.251621 0.263443 0.690291
75 1 6.67591 6.70318 3.23772 0.631962 -0.555731 -0.702051
76 1 8.26885 8.27855 4.75684 0.0262345 1.27351 1.5758
77 1 9.8587 6.43262 3.20394 -0.880238 0.802985 -0.615892
78 1 11.5349 8.16566 4.98943 -0.765952 -0.928566 1.01506
79 1 13.1383 6.49612 3.32605 -1.11636 0.966683 1.67339
80 1 14.8268 8.19784 4.96037 -0.335196 0.931332 1.46452
81 1 16.4411 9.95623 3.23614 -0.362655 1.36006 0.263894
82 1 1.73902 11.5178 4.98774 1.22563 1.90224 0.0703235
83 1 3.32097 9.84895 3.24998 -0.268753 -1.24505 0.89429
84 1 4.95325 11.5467 4.91761 1.77861 -0.193662 -0.00250471
85 1 6.64512 9.82009 3.21299 0.782498 -0.54628 1.3822
86 1 8.15464 11.5228 4.95545 0.528826 0.57294 2.52486
87 1 9.86674 9.94554 3.26054 2.4037 -0.911482 2.12588
88 1 11.6524 11.6233 4.94072 -0.373574 -0.348188 -0.852076
89 1 13.1114 9.89726 3.3779 0.68003 -1.57584 2.94643
90 1 14.8986 11.5698 4.97208 -1.99228 0.822668 -1.03739
91 1 0.125837 13.2074 3.32785 -0.138797 -1.51181 -1.88987
92 1 1.70688 14.8493 4.97769 2.62413 -2.15657 0.128878
93 1 3.2722 13.2177 3.25838 0.809775 2.19716 0.506478
94 1 4.94598 14.8108 4.99316 2.27021 0.771443 -0.612032
95 1 6.54276 13.1004 3.32596 -2.36063 -0.366075 1.17197
96 1 8.252 14.8478 4.9604 0.151745 1.87255 2.49991
97 1 10.0148 13.1773 3.41736 -0.646989 0.156735 0.839266
98 1 11.5915 14.9517 4.9179 -0.707293 1.67544 -0.878716
99 1 13.3461 13.2795 3.38182 1.68482 1.62817 0.581699
100 1 14.9709 14.9187 4.98396 -0.435529 -0.175624 -0.96223
101 1 0.072438 0.0256327 6.63977 0.536009 -0.981152 2.07884
102 1 1.59982 1.62302 8.17764 -1.24096 -0.13298 1.97033
103 1 3.17006 16.4538 6.6392 1.75177 -1.22743 0.137594
104 1 4.97815 1.6486 8.28235 -0.12795 1.25766 0.947705
105 1 6.57155 16.4766 6.5737 -0.0378442 -0.0208872 -0.0389668
106 1 8.33873 1.51322 8.31438 1.91368 -0.602929 -0.515068
107 1 9.79619 16.4709 6.53995 1.12919 -0.754522 1.2111
108 1 11.4607 1.61341 8.32566 -1.1048 0.385248 -0.249691
109 1 13.2343 16.4507 6.71122 0.964817 -1.09405 1.86915
110 1 14.8513 1.62553 8.34074 1.39792 1.09272 0.584419
111 1 16.4265 3.33292 6.65211 0.00946342 -0.934546 -1.49231
112 1 1.72651 5.01664 8.20658 1.26789 1.05396 1.06385
113 1 3.40916 3.38619 6.58609 0.500157 -1.01573 -0.113385
114 1 5.13219 4.93901 8.22572 0.096025 -1.41426 0.485726
115 1 6.61301 3.18994 6.59253 -0.0446818 1.48267 0.757075
116 1 8.2604 5.04961 8.17156 -0.465455 -1.8143 0.602779
117 1 9.83965 3.22377 6.72593 0.831845 -0.602165 1.55673
118 1 11.5829 5.02918 8.29423 0.271863 0.2565 0.0620542
119 1 13.1594 3.37576 6.76079 0.575518 -0.888358 0.538093
120 1 14.9151 5.04409 8.14119 -1.80158 1.36919 -1.39098
121 1 16.5046 6.6102 6.50089 0.852703 0.341676 -1.92415
122 1 1.65054 8.15094 8.2601 1.46895 -1.699 -1.64023
123 1 3.26938 6.48579 6.56829 -2.88668 -1.59695 1.21716
124 1 4.96925 8.35857 8.23255 0.376561 -1.45213 0.79352
125 1 6.63696 6.7731 6.55981 -1.46086 -0.277107 0.478932
126 1 8.13176 8.38182 8.19188 0.54573 -1.43993 1.83559
127 1 9.80979 6.71775 6.6303 -0.946404 -0.514289 4.15322
128 1 11.6475 8.36271 8.21342 0.673774 0.354625 1.20417
129 1 13.1397 6.63205 6.58436 0.594656 0.150032 -1.22711
130 1 14.868 8.28384 8.19662 -0.2264 1.80767 -0.454137
131 1 16.5077 9.8634 6.63979 -1.51861 1.68907 -0.438558
132 1 1.68 11.6328 8.26881 1.80753 0.600181 -1.09352
133 1 3.32594 9.78246 6.62582 0.250479 1.47641 -0.452764
134 1 4.92108 11.6645 8.30466 -0.027022 -0.182575 2.3684
135 1 6.5292 9.93692 6.55296 1.0437 0.350649 1.80671
136 1 8.23411 11.5992 8.19455 -0.462965 -0.9466 -0.0249219
137 1 9.91184 9.89029 6.54785 1.61175 0.967115 -0.385477
138 1 11.571 11.6265 8.22536 0.297933 -0.775647 0.162798
139 1 13.2133 9.9478 6.5489 -0.508368 -0.111193 -0.0931259
140 1 14.8307 11.5152 8.29948 0.90427 -0.126528 0.858904
141 1 0.028261 13.1789 6.51872 0.875751 -0.775281 -2.08944
142 1 1.64752 14.8627 8.3756 0.575363 -1.08883 -0.767771
143 1 3.19171 13.2603 6.62146 -0.447646 -0.187187 -0.653338
144 1 5.00812 14.9843 8.25342 -1.29852 0.806294 0.292983
145 1 6.60467 13.2443 6.5886 -0.289114 0.37638 0.61735
146 1 8.22137 14.909 8.3304 -0.757029 -0.666557 0.279959
147 1 9.86587 13.2103 6.59814 -1.83237 1.22197 2.02685
148 1 11.5447 14.8818 8.25916 -1.99878 -1.46193 1.38848
149 1 13.4271 13.232 6.75139 -1.3513 0.263774 -0.165829
150 1 14.968 14.9228 8.28894 0.09618 -1.4774 -1.84316
151 1 0.0449994 0.0941276 9.91298 1.57142 -2.41084 -2.47676
152 1 1.67632 1.75147 11.5573 0.711785 -3.18255 0.445299
153 1 3.29218 0.0563976 9.92344 -0.115759 -1.56867 -1.00031
154 1 5.04909 1.73816 11.5382 0.535375 -1.54459 -2.35772
155 1 6.63803 16.4906 10.0394 -0.244294 -2.01713 -0.8264
156 1 8.40089 1.66223 11.6555 -2.02531 0.290935 2.61776
157 1 9.85116 0.0258124 10.0771 -0.944563 -0.826733 -0.065578
158 1 11.5784 1.60669 11.6571 1.40907 -0.70684 -2.25781
159 1 13.1964 0.00464239 10.0635 1.0172 -1.23582 -1.2976
160 1 14.9108 1.70849 11.6014 2.10492 -1.95042 -0.097073
161 1 0.00201864 3.32518 9.85398 -0.973633 -1.42372 -0.14294
162 1 1.81428 5.01978 11.4799 0.557583 1.3164 0.618096
163 1 3.45714 3.33674 9.75811 -0.676952 0.0575685 -0.862428
164 1 5.11925 4.9973 11.4442 -1.94598 1.06464 -0.349187
165 1 6.76234 3.21725 9.87737 -1.65577 0.829728 -0.346057
166 1 8.45 4.97143 11.506 -0.909152 0.260777 -0.206648
167 1 9.99049 3.31396 9.84743 -0.823279 2.41483 -0.616682
168 1 11.7125 4.9384 11.5616 -0.553385 -0.25107 -0.12209
169 1 13.2363 3.27965 9.97004 -1.3275 -0.673341 -0.426126
170 1 14.9609 4.92688 11.6043 -1.0031 1.55772 -0.278388
171 1 0.0152344 6.5904 9.99514 0.228257 0.0455608 -1.42343
172 1 1.74674 8.24659 11.5994 0.723849 0.310811 -0.748836
173 1 3.41199 6.72743 9.85875 -0.144176 0.698195 -0.519198
174 1 4.95665 8.3186 11.5609 0.188605 1.76412 -0.690244
175 1 6.64812 6.62344 9.77465 -1.66764 -0.276648 -0.16274
176 1 8.3107 8.28191 11.4268 -2.96718 0.590848 0.11825
177 1 9.94314 6.64572 9.88879 -0.410412 0.526163 1.71051
178 1 11.6282 8.3236 11.5035 1.41435 2.04307 1.87486
179 1 13.2069 6.60677 9.8889 0.0693123 1.17624 -1.16774
180 1 14.8774 8.24392 11.5629 2.58984 0.295178 -0.816648
181 1 16.4959 9.82445 10.0412 0.137871 -1.18934 0.575337
182 1 1.54825 11.6463 11.5833 -0.435658 -0.466617 -0.155221
183 1 3.28921 9.91893 9.94227 -0.083653 0.433855 -1.89176
184 1 5.01417 11.6028 11.6406 -0.0602964 -0.735281 0.76583
185 1 6.55248 10.0648 9.91324 -0.140884 -0.0500832 -1.54555
186 1 8.32236 11.6341 11.3227 -0.377484 -2.04341 -0.764326
187 1 9.86 9.91656 9.66121 -0.619564 0.194297 -1.1784
188 1 11.5186 11.5559 11.5247 -2.03883 1.44343 -1.35838
189 1 13.2409 10.0544 9.97468 0.0962339 0.511135 0.783441
190 1 14.8684 11.5629 11.5794 -1.17977 -1.7453 0.445809
191 1 0.026681 13.2401 9.96821 -1.10328 -0.379692 -0.636134
192 1 1.63649 14.9342 11.637 0.490598 1.27391 -0.10146
193 1 3.26253 13.2466 9.90247 -0.306649 -0.173775 -0.30809
194 1 4.98063 14.9072 11.5868 0.143622 0.124346 -1.50132
195 1 6.59848 13.2355 9.94566 0.513234 -0.25612 -0.0282325
196 1 8.20161 15.0052 11.5365 -3.1876 2.04623 1.51156
197 1 9.96593 13.2562 9.84526 -0.111881 -1.67993 -0.22718
198 1 11.5165 14.8143 11.7384 -0.199813 -2.75449 -0.648816
199 1 13.2486 13.1792 9.9468 0.157968 -0.459274 -0.504005
200 1 14.9484 14.8882 11.6687 -0.783069 0.382835 0.0248715
201 1 16.506 0.133091 13.2057 0.0591125 -2.14986 -1.59032
202 1 1.74042 1.5697 14.9158 -0.647486 -0.548194 -0.819841
203 1 3.31223 0.0959432 13.0868 0.32931 -0.394713 -1.4376
204 1 4.8813 1.77355 14.9244 0.278843 0.524286 -0.643996
205 1 6.50962 0.0701099 13.311 -2.70332 0.772646 -0.592629
206 1 8.18927 1.68325 15.0175 1.03114 0.348847 -1.04603
207 1 9.90637 0.0467739 13.2698 1.83861 0.0914739 -1.28888
208 1 11.6237 1.67383 14.9041 -0.756867 0.640418 -1.82532
209 1 13.161 0.0576961 13.249 0.514353 -1.67934 0.716099
210 1 14.9113 1.64351 14.8478 1.58771 -1.50056 -0.927064
211 1 0.129745 3.35253 13.2804 0.473021 0.185522 -0.962557
212 1 1.71833 4.99011 14.8928 -0.0836712 -0.181946 -0.0266798
213 1 3.35366 3.34432 13.2643 -2.40336 -2.34894 0.380979
214 1 4.92446 4.95822 14.7529 -0.851396 -0.823262 -0.305436
215 1 6.67962 3.32396 13.2253 -1.42362 1.26405 -0.503412
216 1 8.28212 4.86724 14.8594 -1.26631 1.12712 -0.160146
217 1 10.0019 3.29098 13.2529 0.316224 -0.191705 -3.78163
218 1 11.6573 4.93107 14.9923 0.210198 0.782293 0.176662
219 1 13.274 3.35322 13.3515 -1.49344 0.329168 -1.2965
220 1 14.9422 4.95804 14.9364 -0.332757 1.35889 0.961523
221 1 0.0345779 6.64532 13.2106 -0.384504 0.56542 -0.0699556
222 1 1.67063 8.31099 14.9117 1.04406 1.25218 1.29778
223 1 3.26846 6.58265 13.2496 -0.184554 1.50329 0.876219
224 1 4.93957 8.33328 14.7956 1.17967 0.145076 -0.124836
225 1 6.54224 6.56484 13.0261 -0.0841233 -1.61111 0.0440731
226 1 8.26159 8.17376 14.7714 0.78401 0.0334096 0.986107
227 1 9.99322 6.55622 13.0451 1.38233 -2.13524 0.42193
228 1 11.6356 8.26767 14.8036 -0.990702 0.880176 0.911726
229 1 13.2728 6.66069 13.1752 -1.31361 1.24872 0.653749
230 1 14.8248 8.26724 14.8773 0.0478232 1.99792 0.174538
231 1 16.4229 9.83846 13.2337 -1.34164 -0.805142 -1.03074
232 1 1.5472 11.5914 14.8296 0.286959 0.96581 2.35357
233 1 3.32717 10.0247 13.1673 1.29171 -0.517358 1.11192
234 1 4.90132 11.6503 14.8238 1.18202 0.284751 0.880344
235 1 6.65393 9.91132 13.1383 -0.207801 0.264134 0.612759
236 1 8.21588 11.5775 14.792 -1.03228 -0.024136 -1.64332
237 1 9.86536 9.90835 13.1152 -0.909152 -0.0422307 -1.58659
238 1 11.5075 11.4606 14.766 -1.2858 -1.41016 -1.52873
239 1 13.1708 9.91945 13.1906 0.822752 -0.334466 -1.77762
240 1 14.7799 11.6371 14.8704 1.21043 0.0162441 -1.22979
241 1 16.4241 13.2875 13.2553 0.585627 2.02629 -1.31934
242 1 1.69403 14.8562 14.7076 0.190745 -0.35091 -1.42828
243 1 3.29381 13.2099 13.1979 0.601434 -1.93491 0.188202
244 1 4.91708 14.8541 14.9054 1.98831 -0.180242 0.571688
245 1 6.66091 13.2415 13.1924 0.135908 0.927935 -0.842399
246 1 8.29923 14.9278 14.8624 0.0665192 -1.70277 -0.729979
247 1 9.92687 13.1697 13.289 -0.091809 -0.791037 -1.27704
248 1 11.5669 14.7354 14.9822 -0.334973 0.442378 -1.47539
249 1 13.1223 13.1155 13.2051 -1.01506 -1.57342 -1.013
250 1 14.8504 14.7265 14.8228 0.199592 -1.57566 -0.205829
