ITEM: TIMESTEP
650
ITEM: NUMBER OF ATOMS
250
ITEM: BOX BOUNDS pp pp pp
0.0000000000000000e+00 1.6520000000000000e+01
0.0000000000000000e+00 1.6520000000000000e+01
0.0000000000000000e+00 1.6520000000000000e+01
ITEM: ATOMS id type x y z vx vy vz
1 1 0.0736453 0.037602 16.5024 0.265333 -1.03997 0.423877
2 1 1.58667 1.69151 1.67204 -1.04213 -0.000495281 1.37647
3 1 3.44738 0.0483314 16.45 -0.922858 1.51575 0.576003
4 1 4.94847 1.65784 1.71471 0.376465 0.486955 -1.24145
5 1 6.57455 16.3846 0.160686 -0.643202 -0.976392 0.885324
6 1 8.26379 1.60624 1.77771 -1.62049 -0.398015 0.947204
7 1 9.88742 16.4406 0.129558 -0.733788 -0.748422 -1.34025
8 1 11.4819 1.64766 1.67941 1.04686 -2.21736 3.89587
9 1 13.2419 16.4765 0.114015 1.43609 -0.909729 -0.318798
10 1 14.905 1.58312 1.74456 0.374523 0.607647 1.41092
11 1 0.0660702 3.42694 0.0639576 -0.113135 1.46988 -0.574306
12 1 1.72089 4.96835 1.72442 -1.03645 1.55073 -0.565184
13 1 3.19104 3.27138 0.028416 -0.487285 0.777993 -0.259647
14 1 4.84611 5.04141 1.57792 -0.0891185 -2.18986 -0.542036
15 1 6.57337 3.2592 0.0668537 0.243454 -0.0583984 0.628753
16 1 8.0552 4.96093 1.63906 -2.02078 0.114845 1.03233
17 1 9.83278 3.26667 0.0718879 2.31216 -0.318207 1.11618
18 1 11.5063 4.91483 1.68138 -1.08283 0.723235 0.639034
19 1 13.2607 3.36986 0.00635726 -1.05337 0.715717 2.82346
20 1 14.7629 4.98976 1.68821 -1.03763 -0.387559 1.06476
21 1 0.065904 6.59265 0.0645358 -0.85006 -0.884719 -0.456752
22 1 1.71177 8.33732 1.60424 -0.713287 -0.527803 1.51292
23 1 3.22904 6.68206 16.3611 0.229166 -0.12636 0.534737
24 1 4.89009 8.25832 1.52014 -0.0927924 1.82857 -0.558398
25 1 6.68622 6.59911 16.4933 1.29064 -0.0743201 0.645743
26 1 8.17182 8.31389 1.64121 -0.54094 -1.68082 0.211202
27 1 9.83901 6.60196 16.485 -0.608563 -0.182179 -2.86153
28 1 11.4653 8.18621 1.60655 -0.0173602 -1.11621 0.773537
29 1 13.0816 6.52632 16.4809 0.524792 -0.647635 0.138611
30 1 14.9065 8.25086 1.69297 -2.00213 -0.404919 -1.00653
31 1 0.018966 9.95692 16.5102 0.623141 -0.710936 -0.146694
32 1 1.62884 11.5346 1.66783 0.197881 -1.30802 -0.279109
33 1 3.35158 9.9606 16.3903 -1.42517 0.634785 -0.213816
34 1 4.88889 11.5017 1.58951 1.04118 -0.923081 -1.25866
35 1 6.70305 9.9227 16.3485 0.725244 -1.01571 -2.43924
36 1 8.23408 11.5295 1.57109 -1.65068 0.320889 -0.68832
37 1 10.0108 9.93119 16.4232 1.42277 -2.22602 -1.25762
38 1 11.5936 11.485 1.71841 -1.29579 -1.23926 -1.50873
39 1 13.2799 9.94047 16.3076 0.267158 -0.947617 -1.07951
40 1 14.9237 11.6184 1.73175 -0.905417 0.726632 1.60312
41 1 16.4659 13.2154 0.109708 -0.933311 0.210239 1.61886
42 1 1.65728 14.7675 1.61192 -0.557502 -2.0732 -1.19812
43 1 3.30712 13.2001 0.0188043 0.484574 -1.2966 -0.0215182
44 1 4.82282 14.7706 1.60402 0.631022 -0.928891 0.747116
45 1 6.51753 13.0443 16.4938 1.52844 -0.952808 0.332091
46 1 8.17848 14.7877 1.83193 -1.02464 0.546559 1.03144
47 1 9.91218 13.1654 0.135641 -1.5118 -0.33223 -0.226131
48 1 11.5585 14.8443 1.78845 0.582388 1.6519 -2.17288
49 1 13.2745 13.2169 0.0562299 0.903893 0.370609 0.483544
50 1 14.8021 14.7466 1.74546 0.288456 1.05306 -0.146194
51 1 0.0449708 0.00381522 3.41065 0.658816 -3.73575 -0.460487
52 1 1.59744 1.70594 5.04557 0.960641 0.245102 1.3022
53 1 3.30598 16.4006 3.36956 1.25678 -0.43863 -0.180905
54 1 5.0629 1.58343 4.96042 -0.383861 -1.58101 0.54907
55 1 6.50863 16.382 3.37315 -1.7183 -0.0975537 1.94061
56 1 8.27155 1.52486 4.98655 1.13194 -1.20673 0.198149
57 1 9.93045 16.4246 3.37592 -2.00067 -2.09375 0.916709
58 1 11.4972 1.52889 5.02145 -0.211128 -0.113896 1.52805
59 1 13.2882 16.515 3.42868 0.103759 -0.75671 -0.619515
60 1 14.9133 1.73831 5.07062 0.511948 0.461037 0.0121622
61 1 0.0464542 3.20358 3.36993 0.631794 0.214804 0.523159
62 1 1.65088 5.04062 5.05664 -1.06311 0.284218 -0.28814
63 1 3.23591 3.19173 3.35676 0.06485 -1.00743 0.199846
64 1 4.78667 4.99035 4.9601 0.576789 0.370142 -2.59174
65 1 6.63913 3.27684 3.37463 0.0287826 -0.633443 0.361414
66 1 8.1147 5.00227 4.86383 -0.537897 -1.80697 -1.13988
67 1 9.71539 3.24387 3.24413 0.617092 -0.859174 0.814992
68 1 11.4495 4.95397 4.8952 -1.55064 -1.11494 -1.30941
69 1 13.2181 3.19668 3.25029 -1.11424 -1.2496 -0.150691
70 1 14.7804 4.93167 5.01014 -0.437681 -0.853961 -0.627919
71 1 16.4919 6.63149 3.46847 -0.0330244 -0.741176 0.944075
72 1 1.68024 8.19695 5.11336 -0.0855331 0.699616 0.394809
73 1 3.28771 6.77155 3.23103 0.427882 0.238336 -0.133709
74 1 5.0534 8.29576 4.94861 0.206476 -0.155333 1.14188
75 1 6.44631 6.76527 3.29844 -2.20169 -0.656613 0.908366
76 1 8.23023 8.39401 4.93103 0.385723 0.278461 -0.243385
77 1 9.83219 6.81486 3.23671 0.530776 0.376571 0.459271
78 1 11.5483 8.41549 4.94124 1.4439 2.96526 -1.05661
79 1 13.1152 6.58628 3.28646 -0.658628 1.99959 -1.18915
80 1 14.8634 8.08739 5.04752 -0.00650198 -1.1305 1.19421
81 1 0.118424 9.91276 3.34133 0.484933 1.28784 0.69304
82 1 1.68488 11.5765 5.01533 0.158951 -2.10993 -1.35234
83 1 3.33918 9.85117 3.26202 -1.11598 2.48009 -1.9436
84 1 4.90508 11.4707 4.96744 -0.738778 0.292482 -0.92659
85 1 6.64601 9.91959 3.27296 -1.34864 -2.24264 -0.528543
86 1 8.2408 11.5942 4.92559 0.013918 0.642524 -0.257056
87 1 9.86421 9.94222 3.30528 -1.58556 -0.0801147 1.98754
88 1 11.6017 11.4454 4.8483 -1.36433 -0.652922 0.484267
89 1 13.2546 9.8798 3.42028 -0.0115398 -0.775202 0.158001
90 1 14.991 11.5166 5.05124 1.15495 -0.980895 -0.596803
91 1 16.4937 13.2567 3.4494 -0.701614 0.399271 2.09147
92 1 1.68477 14.7909 5.09164 0.916804 -0.857565 1.91667
93 1 3.24998 13.0829 3.41278 -1.62261 -1.57829 -1.43494
94 1 4.89731 14.7793 5.00418 -0.105636 -2.84287 0.643274
95 1 6.48035 13.0382 3.28529 -2.46331 -0.235653 -0.0483053
96 1 8.15243 14.7414 5.07558 -0.420163 -0.0545771 0.339526
97 1 9.99091 13.2379 3.29581 -0.4552 -0.814752 -0.0824026
98 1 11.5698 14.8663 4.92789 0.26164 0.015572 2.24087
99 1 13.258 13.2329 3.3885 -0.501035 -0.234642 2.41319
100 1 14.8601 14.824 5.09553 -1.07572 1.62797 1.1516
101 1 0.0368452 0.0685917 6.82508 -0.64475 -0.435081 -0.0599297
102 1 1.62844 1.68161 8.38287 0.80528 1.37226 1.52101
103 1 3.32029 0.000758721 6.65177 1.95216 -0.388372 1.1443
104 1 5.06356 1.67354 8.17194 0.654561 1.62876 -0.39373
105 1 6.60483 16.2851 6.60934 -1.21065 -1.03354 0.898281
106 1 8.42136 1.6582 8.15832 -0.347677 1.22293 -0.154538
107 1 9.91913 16.3771 6.68141 -0.75117 -2.35741 3.08517
108 1 11.5625 1.62443 8.33304 1.51405 0.20732 -0.691242
109 1 13.2705 16.5064 6.63023 0.859194 0.340226 1.64359
110 1 14.9541 1.65372 8.22618 -1.1802 1.96088 -0.0915334
111 1 16.4495 3.37395 6.72989 -0.418895 0.402398 1.8943
112 1 1.75462 4.94584 8.17343 1.9928 1.20123 1.2198
113 1 3.34184 3.37686 6.59379 1.76683 -1.15385 -1.61311
114 1 4.91957 4.983 8.24999 -0.0797999 0.172657 -0.18094
115 1 6.73383 3.30436 6.59864 1.26444 2.41704 0.634872
116 1 8.35772 5.04546 8.33105 1.42931 -0.834418 0.65378
117 1 9.86221 3.35576 6.64212 -0.970475 -0.480748 0.0623042
118 1 11.4643 4.92257 8.30764 -0.513126 -0.753628 1.61639
119 1 13.1019 3.30149 6.58385 -1.80831 -1.04209 1.04225
120 1 14.7764 4.91813 8.19349 0.713858 0.800948 0.752267
121 1 16.4627 6.5403 6.79439 -0.501495 -1.05514 0.0745171
122 1 1.7584 8.27476 8.31721 -0.444014 1.40015 0.666173
123 1 3.3667 6.69556 6.60183 -0.328627 0.620278 -0.998607
124 1 4.96491 8.31602 8.27925 1.97851 0.699273 -0.801259
125 1 6.65515 6.6102 6.77282 -1.52018 -0.269423 0.674614
126 1 8.27331 8.43051 8.17847 1.9062 0.865681 -1.05508
127 1 9.92078 6.58769 6.45752 1.46646 0.552884 -2.56013
128 1 11.568 8.38828 8.19158 -0.488345 1.98831 0.659328
129 1 13.1517 6.61102 6.70605 -1.85448 -3.0385 1.52961
130 1 14.9554 8.19757 8.2713 -0.0199551 -0.041854 -0.839449
131 1 0.0988643 9.88393 6.69785 0.945688 -0.0611184 0.819958
132 1 1.53792 11.6895 8.42863 0.840971 -0.298236 -0.86301
133 1 3.23484 9.87486 6.73395 0.586673 0.699357 -1.07729
134 1 4.88034 11.6041 8.40845 -1.41522 1.10267 -0.659314
135 1 6.60865 9.97818 6.66371 0.314578 0.823852 0.504384
136 1 8.25095 11.6433 8.09028 -2.24991 2.84762 0.722928
137 1 9.94619 10.0882 6.60568 -0.46823 1.7853 0.335594
138 1 11.5233 11.7359 8.25704 -3.06276 -0.445378 0.486141
139 1 13.2743 9.86332 6.56973 -0.268784 1.63758 0.369047
140 1 14.7877 11.59 8.22435 1.5011 -0.416287 -0.384286
141 1 0.0608702 13.2178 6.71661 -0.579909 1.95092 0.838883
142 1 1.65824 14.8932 8.27919 0.678363 1.50722 4.4526
143 1 3.15638 13.1332 6.61678 -0.792268 -1.22808 0.17053
144 1 4.90933 14.7912 8.39393 1.28785 0.482554 -1.2767
145 1 6.48743 13.1201 6.55524 -0.814053 -1.34342 -0.046038
146 1 8.24823 14.8145 8.07437 0.820989 -1.33357 -0.370638
147 1 9.92202 13.1793 6.45484 0.922728 -0.968211 -0.198714
148 1 11.5892 14.805 8.27575 -0.369545 0.67222 -0.369579
149 1 13.3629 13.1858 6.55411 -1.35821 -1.61784 0.68052
150 1 14.9285 14.8813 8.26325 -0.422482 1.17697 1.53548
151 1 16.4692 0.0696753 9.87793 0.00960672 -1.57344 0.797363
152 1 1.65362 1.57129 11.4918 0.689562 1.26832 0.456397
153 1 3.35071 0.0223681 9.73239 0.767956 1.47188 -0.317517
154 1 5.1388 1.56917 11.475 1.17042 0.016137 1.08249
155 1 6.68893 16.4265 9.87107 -0.887883 0.235117 -1.39489
156 1 8.31993 1.62979 11.5651 0.109695 1.5866 -0.436649
157 1 9.91484 16.4232 9.9015 2.6956 -0.386923 -2.33228
158 1 11.5413 1.65246 11.642 0.610642 -1.03922 1.1669
159 1 13.2915 0.0635971 9.83741 -0.285517 -1.10018 -0.113752
160 1 14.8096 1.65998 11.4844 0.703499 -0.872175 -0.466501
161 1 16.5073 3.39376 10.098 1.9027 -0.0349076 0.381685
162 1 1.72616 5.00992 11.5443 2.51551 -1.09194 -1.41961
163 1 3.43174 3.35077 9.89194 -1.77839 -0.0742043 0.985346
164 1 5.17916 5.00322 11.497 1.83399 1.4192 -0.726636
165 1 6.65827 3.3413 9.76978 -1.80743 0.170016 -0.456296
166 1 8.3257 4.93441 11.5631 -0.0592087 1.03022 0.204759
167 1 9.88961 3.15015 9.94529 1.32193 2.26843 1.01036
168 1 11.5127 4.8943 11.5292 0.087553 -0.725022 2.53046
169 1 13.1301 3.34995 9.87414 1.24097 -0.432603 2.07056
170 1 14.7908 5.05548 11.5882 1.11688 2.80849 0.158386
171 1 0.11781 6.5705 9.90429 -1.45631 0.127338 -0.344544
172 1 1.73733 8.16094 11.4726 2.47394 1.32136 -0.804646
173 1 3.35168 6.60628 9.84263 -1.01193 0.417213 -1.92337
174 1 5.05111 8.38281 11.469 0.764409 -2.37669 -2.04938
175 1 6.57117 6.68849 9.79725 -0.148943 0.606396 -3.51445
176 1 8.34763 8.42477 11.3921 0.83634 2.70664 -1.92235
177 1 9.85809 6.62646 9.77054 -0.480714 -0.330827 -0.773553
178 1 11.694 8.23066 11.4615 0.94313 0.674531 -1.82757
179 1 13.1849 6.6937 9.85099 -0.572858 0.048164 -2.29207
180 1 14.9225 8.23861 11.6206 0.366147 0.891576 -1.11865
181 1 16.4014 9.87851 10.0377 -0.342025 1.2233 -0.783486
182 1 1.6145 11.5073 11.6572 0.506289 0.685853 -0.163681
183 1 3.29164 9.84958 10.0134 -1.96244 -0.861993 -1.90098
184 1 4.8987 11.6378 11.4145 0.0273264 0.809998 -0.0455171
185 1 6.67428 9.99385 9.76652 0.41174 0.420026 -0.502076
186 1 8.17323 11.6381 11.4817 0.648783 1.87039 -0.0351498
187 1 9.94591 10.1065 9.86336 0.476265 0.964166 -0.283966
188 1 11.6101 11.5836 11.4745 -0.432075 -1.63076 -0.217861
189 1 13.3463 9.87592 9.8807 -0.00230275 -1.52525 -2.37303
190 1 14.8467 11.5487 11.5293 0.409762 -0.604617 0.56055
191 1 16.4411 13.3509 10.0708 -1.01123 0.747776 -0.795598
192 1 1.66068 15.0937 11.5125 1.04302 2.6077 1.62903
193 1 3.12954 13.1843 9.99215 1.6015 2.17782 -0.982166
194 1 5.04105 15.0734 11.5278 -0.111227 1.04511 0.506109
195 1 6.62563 13.321 9.92513 -2.59732 -0.318585 -0.632388
196 1 8.27596 14.9135 11.6629 -0.736269 -1.29004 0.497875
197 1 9.75582 13.22 9.92667 1.87044 0.927121 3.14938
198 1 11.5992 14.8676 11.5475 -1.14306 -0.376989 1.11023
199 1 13.1063 13.1633 9.94744 0.558438 1.06427 0.974821
200 1 14.7245 14.8872 11.6105 0.916172 -1.42666 0.109079
201 1 0.0605124 16.5076 13.1366 -1.96569 0.369504 -0.211407
202 1 1.67413 1.75656 14.6568 0.589918 0.117432 0.0545821
203 1 3.39673 0.0793616 13.0949 -0.902242 0.612915 -0.562681
204 1 5.0304 1.6851 14.9019 -0.867415 -1.22685 -1.64148
205 1 6.79091 0.0169308 13.2671 0.583778 -1.22772 0.490926
206 1 8.20714 1.64369 14.9266 0.561755 -1.05367 1.00478
207 1 9.97739 0.0758011 13.4468 -0.937749 -0.542685 1.47109
208 1 11.6516 1.58823 14.9581 1.71533 0.555111 -0.477051
209 1 13.1305 0.10202 13.3134 0.396214 -2.42884 0.487786
210 1 15.0317 1.54638 14.84 0.873413 -1.58508 0.390284
211 1 0.031847 3.27064 13.1124 -0.648729 -0.0505123 -0.785349
212 1 1.78543 4.93249 14.7113 0.0677878 -0.203722 -1.65017
213 1 3.37879 3.27052 13.1922 0.597751 0.262533 -1.14489
214 1 4.90027 5.01674 14.8194 0.708401 1.21524 -0.261997
215 1 6.67774 3.24224 13.1694 1.03923 -1.33109 -1.85703
216 1 8.29156 4.89195 14.7711 -0.474215 1.094 -1.34828
217 1 9.93961 3.29209 13.1525 1.35085 -1.43014 0.362628
218 1 11.5307 4.82497 14.7703 -1.57986 0.533105 -0.80934
219 1 13.1768 3.26564 13.1176 0.978257 2.33868 -0.208787
220 1 14.9312 4.94576 14.8849 0.0336057 -0.836778 -0.645809
221 1 0.0836423 6.61646 13.1677 -0.974672 1.22306 -0.219378
222 1 1.6098 8.25829 14.7858 1.44708 1.68816 0.526469
223 1 3.45959 6.66197 13.1031 -1.20373 -0.160442 0.707433
224 1 5.05878 8.33664 14.7764 0.795922 1.46641 -0.431917
225 1 6.58475 6.66659 13.144 -0.0783643 1.95686 -0.0568511
226 1 8.29344 8.2881 14.8283 0.764878 0.633957 -0.218731
227 1 9.92713 6.55988 13.2449 -0.936401 -0.455239 -0.761601
228 1 11.5108 8.25462 14.8555 -0.483369 -2.49147 -1.72573
229 1 13.2131 6.54081 13.2275 -0.110097 0.693188 -1.6434
230 1 14.94 8.26432 14.7703 0.617702 0.657945 2.04523
231 1 16.5026 9.87188 13.1702 -1.06102 0.555688 1.19812
232 1 1.62124 11.607 14.7693 -0.00618651 -0.502472 -1.06296
233 1 3.35535 9.90627 13.1705 1.40203 -1.63181 -2.73106
234 1 4.94846 11.5283 14.7789 -0.669099 1.02243 -1.27683
235 1 6.66685 9.99247 13.0633 2.90108 -1.17839 -1.20681
236 1 8.36184 11.677 14.8192 -0.774565 -0.507867 -1.23764
237 1 9.95748 10.0207 13.0475 1.12341 2.14183 -2.00479
238 1 11.4655 11.6029 14.7568 1.01521 1.35687 -0.945234
239 1 13.2284 9.88084 13.1557 0.305493 -1.86195 0.0714345
240 1 14.7655 11.5681 14.7594 -0.936637 0.453412 -0.776226
241 1 16.3724 13.2789 13.1708 -1.05097 -1.10851 1.35212
242 1 1.60058 14.8776 14.8422 0.447168 -0.304109 0.406683
243 1 3.25758 13.3566 13.1389 2.10588 2.0501 -1.08757
244 1 5.01333 14.7927 14.8592 1.3437 1.3053 1.36542
245 1 6.55505 13.1737 13.2745 0.274075 -0.0351926 0.533912
246 1 8.1997 14.8395 15.0019 0.124952 -1.57328 0.411599
247 1 9.92384 13.1779 13.198 -1.17195 0.755012 -0.905559
248 1 11.4952 14.8006 15.0178 0.427161 1.63445 1.74088
249 1 13.0648 13.1949 13.1694 -0.757091 1.41693 -2.47439
250 1 14.8803 14.8496 14.8567 0.0766621 0.488332 0.876939
