ITEM: TIMESTEP
140
ITEM: NUMBER OF ATOMS
250
ITEM: BOX BOUNDS pp pp pp
0.0000000000000000e+00 1.6520000000000000e+01
0.0000000000000000e+00 1.6520000000000000e+01
0.0000000000000000e+00 1.6520000000000000e+01
ITEM: ATOMS id type x y z vx vy vz
1 1 0.0348365 16.4966 16.4893 -0.802159 -1.10856 -0.76639
2 1 1.69218 1.71198 1.63598 -0.0576802 0.898832 1.31924
3 1 3.26901 0.0781997 16.4905 -1.41011 -0.653188 -0.0815883
4 1 5.09176 1.72825 1.5691 -0.390692 -1.35407 -1.31903
5 1 6.6953 0.0505149 16.3077 0.641168 -0.659815 0.166596
6 1 8.40118 1.76018 1.53526 -0.299647 -0.860483 2.29717
7 1 9.93443 0.0781052 16.358 0.808644 -3.25104 1.27855
8 1 11.6309 1.60435 1.67678 -0.931396 0.437785 -1.47358
9 1 13.1847 0.0823657 16.4501 1.30759 -0.405732 1.54485
10 1 14.8307 1.66787 1.6322 0.974162 -1.0451 -0.476935
11 1 16.4803 3.32214 16.4861 1.40849 -0.335998 1.13208
12 1 1.59286 4.86535 1.646 1.00468 -0.126567 0.106176
13 1 3.29862 3.29498 0.0846796 -0.221296 -1.09059 -3.35223
14 1 5.07668 4.89255 1.71682 -0.0145939 -0.652326 1.56653
15 1 6.74043 3.28117 16.4384 -0.936519 -2.99637 -0.709499
16 1 8.4218 4.93052 1.71774 -1.18727 0.244814 -0.505101
17 1 9.97224 3.33842 0.0275247 -1.27934 0.731231 1.13134
18 1 11.6238 5.04719 1.6881 0.413619 1.28564 -0.277122
19 1 13.2598 3.39577 0.0676013 0.570345 -1.86967 0.0849418
20 1 14.8503 5.01877 1.62474 -1.25709 -1.61025 0.20504
21 1 16.4892 6.65609 16.4561 0.612132 -1.39596 -1.74092
22 1 1.60738 8.20729 1.68461 0.149331 0.910487 -1.16545
23 1 3.35247 6.61298 0.124605 0.0807021 0.536338 -2.39699
24 1 5.00436 8.20114 1.75951 -0.354658 0.607773 0.549163
25 1 6.70917 6.52834 0.0938191 -0.47339 2.03174 0.972068
26 1 8.20228 8.1123 1.87149 0.97849 1.61371 -0.0882528
27 1 9.92552 6.61406 16.4878 -1.00674 2.96874 0.121453
28 1 11.5698 8.37439 1.57885 1.48471 0.69791 -0.266552
29 1 13.2313 6.6312 0.0240018 -0.847427 -1.03507 -0.257938
30 1 14.8902 8.24055 1.62154 2.05227 0.713072 -1.3564
31 1 16.4995 9.90064 0.0720115 1.07048 0.542987 0.0669729
32 1 1.60989 11.5543 1.63691 -1.7552 1.3224 -0.240776
33 1 3.35381 9.79895 0.0553314 0.998874 2.45339 -0.471949
34 1 4.92832 11.5631 1.65743 -3.57832 0.781686 1.08796
35 1 6.62391 9.83911 0.142071 -1.39505 1.54717 -0.422234
36 1 8.2223 11.5875 1.70985 -0.629537 -0.378907 -0.156913
37 1 9.89084 9.88001 0.0575708 -0.65426 -1.60662 0.991826
38 1 11.4503 11.682 1.61728 2.43833 -0.441143 0.806855
39 1 13.251 9.98276 0.0243956 1.63778 0.189944 -1.59156
40 1 14.718 11.5468 1.6814 2.03191 0.617204 -2.40811
41 1 16.4909 13.2007 0.115156 1.28088 -1.53264 -1.48631
42 1 1.6039 14.814 1.67365 -0.562642 -1.41345 1.94478
43 1 3.35698 13.1951 0.094882 -1.41846 0.477875 -1.66989
44 1 5.0831 14.958 1.60906 -2.32323 0.406223 2.07958
45 1 6.56034 13.1962 0.0170107 -1.58403 -0.633699 0.0557791
46 1 8.28476 14.9647 1.47899 -0.774692 0.191577 1.40947
47 1 10.0471 13.2455 16.2798 -0.660133 -0.0290959 -1.50529
48 1 11.5938 14.9493 1.48529 -0.684006 0.520585 1.24491
49 1 13.1257 13.3421 16.4575 0.682056 -0.211807 0.00963573
50 1 14.7482 14.9541 1.604 2.49267 0.582076 1.00629
51 1 16.4052 0.0114874 3.20577 0.312738 3.30025 0.645273
52 1 1.80029 1.70129 4.8251 2.44285 0.991557 1.71835
53 1 3.43509 0.0455865 3.27501 -0.835145 0.416001 0.0783159
54 1 4.98648 1.65713 4.91712 2.13014 -0.477699 1.86019
55 1 6.76523 0.0909601 3.28878 -1.19626 1.3178 -1.06131
56 1 8.33478 1.68449 4.8588 -0.822487 -0.00350583 1.18579
57 1 9.93025 16.5002 3.26285 -0.576991 1.15641 1.41611
58 1 11.6222 1.52285 4.95219 0.40766 -0.501568 -0.697855
59 1 13.1528 16.507 3.15131 0.887089 -2.06572 0.191682
60 1 14.8497 1.68486 4.93216 -0.569768 1.49054 -0.904381
61 1 0.0296757 3.26187 3.30671 0.33522 0.961582 1.76241
62 1 1.68026 4.79829 4.82465 1.00229 -0.0637119 1.88482
63 1 3.43493 3.23833 3.16113 0.0685988 1.8153 -0.100647
64 1 4.9851 4.85617 4.9172 -1.06293 0.557726 0.895199
65 1 6.71594 3.26142 3.23729 -0.368322 1.01579 0.633993
66 1 8.37639 4.90602 5.0081 0.623489 -0.14814 -0.126617
67 1 10.0867 3.3213 3.37345 -1.05281 2.24505 0.336125
68 1 11.6779 4.97687 4.95328 -0.684924 1.27129 0.926834
69 1 13.3512 3.29795 3.28527 -1.6929 0.0207108 0.00864213
70 1 14.8611 4.92498 4.91798 0.995204 0.827246 0.221142
71 1 0.0912317 6.67045 3.31912 -0.917214 -0.529905 -0.789942
72 1 1.7367 8.34837 4.95243 0.346538 0.0291427 1.49268
73 1 3.34966 6.5228 3.36477 -1.60474 -0.214148 -0.329614
74 1 4.91467 8.20785 5.04272 0.690287 -0.437141 -0.19235
75 1 6.68207 6.55511 3.46276 0.765581 -2.20745 -0.311574
76 1 8.43272 8.20046 5.04665 0.88318 1.4232 -1.42934
77 1 10.0115 6.66472 3.32982 -2.58183 -0.488215 -0.0477573
78 1 11.6333 8.28356 4.9897 0.778639 -0.624954 1.47824
79 1 13.3079 6.64678 3.24499 -0.195553 0.158687 0.320062
80 1 14.9956 8.34114 4.90822 1.95651 -0.570024 -0.680856
81 1 16.5155 10.0155 3.23974 -0.87663 -1.955 -0.319996
82 1 1.68501 11.6669 4.81696 -1.96433 1.07877 0.43297
83 1 3.34006 9.88012 3.32952 -2.33785 0.622114 0.567082
84 1 5.06486 11.5993 4.84289 -0.518133 -0.656045 -0.411358
85 1 6.62778 9.83558 3.44233 -1.43417 -0.369155 -0.055584
86 1 8.23935 11.4671 5.01878 0.333255 -0.412395 0.341838
87 1 9.82506 9.99702 3.31714 -1.09124 -2.66933 0.816603
88 1 11.4483 11.5481 4.98658 2.06198 -0.819636 0.825897
89 1 13.164 9.96275 3.34228 0.305505 -1.69685 -0.548629
90 1 14.6229 11.6303 4.94029 0.891084 -0.245939 1.33352
91 1 16.4259 13.2789 3.19153 -1.10714 -2.92499 2.47324
92 1 1.63022 14.9014 4.95229 1.39692 -0.831124 -1.45666
93 1 3.31435 13.3295 3.17573 -1.79641 -1.38037 1.58773
94 1 4.97602 14.928 4.98264 -1.78992 -1.50125 0.0999324
95 1 6.52399 13.4246 3.33699 -1.54484 -0.532989 -0.0797511
96 1 8.26845 14.9167 4.93471 1.80587 -1.15462 -0.275686
97 1 9.77155 13.2143 3.3504 -2.00531 0.348366 -0.403541
98 1 11.5293 14.8514 4.9463 -1.70801 -2.03895 2.46682
99 1 13.0312 13.2996 3.30137 -1.69441 0.554586 -1.17028
100 1 14.7176 14.9707 4.88398 0.240899 -0.699999 -0.149699
101 1 0.0928692 0.0561532 6.6259 0.0455138 1.1678 0.307482
102 1 1.60735 1.67242 8.26806 2.24415 -1.79551 0.427376
103 1 3.31211 16.5098 6.58678 0.121326 -1.11294 -0.544872
104 1 4.78471 1.73273 8.24104 0.0527763 -1.79655 0.635501
105 1 6.63157 0.119245 6.62723 0.402122 0.334731 0.0186207
106 1 8.24408 1.74829 8.29221 -0.445836 -0.391956 -1.58958
107 1 9.84277 0.0141904 6.58981 1.43518 0.165393 -1.10308
108 1 11.7061 1.67422 8.23735 -0.612118 1.08448 -1.49297
109 1 13.2559 16.5013 6.68854 -1.52271 0.138466 -2.00606
110 1 14.9756 1.60663 8.2247 1.0489 -0.759805 1.38468
111 1 0.110416 3.21389 6.56118 -0.556647 -2.23636 -0.120952
112 1 1.6109 4.97658 8.23588 -1.73928 1.95104 0.516624
113 1 3.2192 3.24735 6.4861 2.20746 1.4867 0.896216
114 1 4.85734 4.96111 8.21128 0.646165 1.01033 -0.876885
115 1 6.53668 3.34717 6.60912 -1.79158 -0.649701 -0.0024257
116 1 8.1584 4.90067 8.31545 -2.24824 3.31001 0.334212
117 1 9.97715 3.30021 6.61521 -0.201911 0.0605427 -0.817938
118 1 11.6187 4.95437 8.31559 0.13008 0.647162 -1.31584
119 1 13.2611 3.30098 6.53683 0.977252 -1.2632 -0.0764885
120 1 14.914 4.83715 8.30775 -0.897766 -0.802851 -1.18423
121 1 16.5082 6.5502 6.5848 0.69178 2.95026 -0.167344
122 1 1.65237 8.33928 8.13734 0.729616 0.328762 2.12668
123 1 3.19496 6.54241 6.54191 0.0822671 -0.160742 1.5558
124 1 4.90946 8.14113 8.23057 1.28827 3.68815 -0.0496168
125 1 6.70157 6.48562 6.63167 2.25493 0.206992 -1.72165
126 1 8.35704 8.14416 8.34846 0.200772 0.648665 1.80761
127 1 9.98029 6.46542 6.60444 -1.3979 -0.470879 -1.38452
128 1 11.6656 8.14544 8.22502 -0.118243 1.17981 -0.722728
129 1 13.4258 6.5644 6.60969 -0.146639 1.473 -0.867532
130 1 14.7819 8.30644 8.1707 -0.561438 0.343098 2.02679
131 1 16.4762 9.95738 6.46817 2.10387 -0.881897 0.351682
132 1 1.75389 11.6536 8.05172 -0.713904 0.737727 -0.27083
133 1 3.37523 10.0925 6.4719 0.855358 -0.634428 -1.14721
134 1 4.99958 11.5395 8.22124 -0.745376 -0.518766 1.23915
135 1 6.77477 9.74334 6.66852 -0.446077 0.180667 1.613
136 1 8.22169 11.51 8.41824 -0.336103 -1.67338 0.356394
137 1 9.87371 9.91059 6.76926 0.143615 -0.838601 -1.05282
138 1 11.485 11.4187 8.40923 0.873132 0.0994468 -2.51349
139 1 13.1179 9.95233 6.60565 0.27262 -1.44897 1.22196
140 1 14.7246 11.5337 8.15707 -0.871421 0.928273 1.65244
141 1 16.4747 13.2736 6.47962 -0.340874 -1.24176 1.61891
142 1 1.72963 14.824 8.269 -1.7206 1.47015 3.03736
143 1 3.41082 13.2527 6.43442 -0.492024 -0.399475 0.936214
144 1 4.96872 14.8748 8.24665 -0.0242117 -1.60653 -1.04946
145 1 6.75856 13.2515 6.58253 -0.867316 0.725918 -0.249396
146 1 8.30417 14.9561 8.29876 0.011568 -1.38299 -0.303476
147 1 9.81624 13.174 6.67462 -1.66776 0.570132 1.17121
148 1 11.5384 14.9415 8.31686 1.77193 -0.843265 0.846459
149 1 13.0378 13.2246 6.76117 1.94278 -1.33523 -0.664792
150 1 14.9161 14.7958 8.20154 -1.72375 0.243285 1.19378
151 1 0.0130628 16.3739 9.9502 0.46 0.109952 1.43009
152 1 1.45632 1.58475 11.6579 1.15529 0.845154 -0.472066
153 1 3.3195 16.4773 10.0211 0.504964 0.790057 2.09742
154 1 4.76961 1.6595 11.6787 0.134055 -1.2601 -0.5824
155 1 6.52424 0.0423972 9.85896 2.89485 -0.460212 -0.00885624
156 1 8.18327 1.69557 11.4153 -1.84585 -0.783989 -1.79953
157 1 9.9249 0.16793 9.89542 -0.575079 -1.88608 0.820437
158 1 11.6324 1.66385 11.4648 -0.672697 1.47798 -1.15397
159 1 13.2822 16.4944 9.76491 -2.10089 -0.851015 0.674794
160 1 14.9464 1.58409 11.5739 -1.61747 0.113054 1.14754
161 1 16.4811 3.27897 10.0046 0.628781 -0.414722 0.608963
162 1 1.56162 5.1182 11.702 -1.46721 -0.269056 -1.22701
163 1 3.03643 3.30065 10.0297 3.34356 -0.563677 -1.50073
164 1 4.72049 5.01339 11.6436 1.30019 -1.7276 -1.87994
165 1 6.31758 3.35551 10.1112 0.53167 0.853698 -0.411799
166 1 8.06671 4.92899 11.5517 -0.605381 -0.663579 -1.22518
167 1 9.97563 3.3882 9.98148 -1.13422 0.36686 -4.37019
168 1 11.5476 4.9613 11.6493 -2.82703 -0.525468 -1.88507
169 1 13.2787 3.28778 9.93608 -0.419941 -1.65973 -0.586738
170 1 14.8909 5.10499 11.557 -0.767563 -0.528113 -2.39663
171 1 16.3796 6.76447 9.97641 0.0607922 0.489341 1.28867
172 1 1.61488 8.44012 11.5197 0.422695 -0.1972 0.717921
173 1 3.17081 6.54328 9.84578 -0.0927696 0.00864215 1.7259
174 1 4.8251 8.27958 11.6098 1.55038 0.18419 -0.767607
175 1 6.3214 6.44885 10.0308 1.54826 -1.1408 1.02916
176 1 8.17304 8.15274 11.5904 3.60178 -0.289271 0.836256
177 1 9.88683 6.4349 9.96647 -0.843507 0.206884 1.06757
178 1 11.5373 8.15733 11.6554 -0.619091 -0.239102 -0.653204
179 1 13.1229 6.54404 9.9168 -3.05166 0.176433 0.867504
180 1 14.9024 8.33057 11.4797 -1.18985 1.0578 1.84844
181 1 0.117708 10.0053 9.75374 0.674966 -0.0523946 -0.922617
182 1 1.77456 11.5205 11.4373 -1.02705 0.450492 -2.69586
183 1 3.33183 9.93391 9.71705 1.04953 -0.861426 -0.723707
184 1 5.08707 11.3989 11.6019 -1.44372 0.552636 -2.03856
185 1 6.59297 9.82096 9.94591 3.45258 1.70172 0.17156
186 1 8.17873 11.5155 11.5826 1.7891 0.6116 -0.0994486
187 1 9.84373 9.74409 10.0038 0.233554 1.43762 -0.141755
188 1 11.5958 11.5403 11.6618 -0.37139 2.03731 -1.04808
189 1 13.1195 9.87966 9.99706 0.64488 1.79428 0.0721607
190 1 15.0104 11.5048 11.5258 -0.214235 -0.212651 -0.62677
191 1 0.145274 13.1845 9.81813 0.836824 0.242014 1.12839
192 1 1.80289 14.8036 11.6384 0.878929 0.128174 0.9838
193 1 3.44022 13.2103 9.88775 -1.22652 2.46635 -0.824653
194 1 4.97564 14.8509 11.601 -0.0244478 -0.08148 -0.544832
195 1 6.62511 13.2106 9.89323 0.375872 0.51072 1.84506
196 1 8.18722 14.8688 11.459 0.341408 0.0839767 -0.77617
197 1 9.91556 13.1439 10.0516 -0.295457 0.118066 -0.463772
198 1 11.6417 14.9769 11.475 0.894166 -0.853144 0.326797
199 1 13.2181 13.1338 9.87539 -1.47096 -1.92102 -1.42608
200 1 14.9424 14.7235 11.5091 0.260287 0.106328 -0.739098
201 1 16.4675 16.4588 13.2754 -0.462848 -1.14658 1.79294
202 1 1.57152 1.67715 14.9697 0.752821 -0.198497 1.26848
203 1 3.27466 16.5078 13.3781 1.09347 1.52789 -0.745639
204 1 4.93745 1.61085 14.7901 0.605376 0.401827 -0.490058
205 1 6.52228 16.4216 13.1464 0.249141 -0.00383176 1.89032
206 1 8.28171 1.61371 14.6597 -0.286981 -1.33646 0.774089
207 1 9.92404 0.0513186 13.0341 1.36918 0.26132 -1.28175
208 1 11.6324 1.60797 14.7573 0.205484 -1.67704 0.53828
209 1 13.3375 16.449 13.116 -1.68887 -1.08084 -0.303822
210 1 14.8039 1.70901 14.849 0.865375 1.97277 1.48746
211 1 16.4134 3.29335 13.3232 0.511663 -0.208412 -0.0872146
212 1 1.5926 4.94338 14.8501 -0.281239 -0.488958 0.210343
213 1 3.14099 3.34309 13.2932 1.41901 0.771948 -1.36129
214 1 4.88514 4.90389 14.8781 1.15431 -0.885329 -2.04562
215 1 6.50103 3.32926 13.2069 0.826945 0.859559 -0.537675
216 1 8.30124 5.01884 14.8426 0.764601 2.15463 1.43146
217 1 9.84545 3.37687 13.1019 -0.0212641 0.86238 1.75459
218 1 11.4799 4.91552 14.9519 -2.18939 0.351792 1.15235
219 1 13.1595 3.37259 13.1673 0.172587 0.475075 0.368763
220 1 14.776 5.04728 14.797 -0.35385 0.327417 0.377746
221 1 16.3647 6.76616 13.2568 0.249754 -0.865045 -0.0621592
222 1 1.62715 8.19877 14.9507 0.669433 0.340296 1.70716
223 1 3.2318 6.64271 13.2545 0.821425 -2.11643 -1.40781
224 1 4.98288 8.20357 15.0259 0.81793 0.983171 -1.32384
225 1 6.54676 6.58401 13.3839 0.0454097 -0.044475 -0.660291
226 1 8.23954 8.31231 15.067 0.985147 0.413576 -2.25262
227 1 9.78377 6.61522 13.306 -1.70423 -0.675478 0.0204186
228 1 11.4703 8.29431 14.919 2.70857 0.151 -0.110733
229 1 13.114 6.70495 13.1579 0.476695 -2.32124 0.118569
230 1 14.817 8.23341 14.9924 0.1513 -0.0328241 -1.16253
231 1 0.0351432 9.83306 13.3083 0.650486 0.258958 0.622819
232 1 1.64627 11.4674 14.9653 0.150548 -0.593786 -0.603952
233 1 3.3136 9.79506 13.207 -0.618184 2.20621 -1.60286
234 1 4.90308 11.4906 14.8975 0.931099 -0.970364 -2.56776
235 1 6.66792 9.79054 13.3938 0.199353 -1.12099 -1.98997
236 1 8.33345 11.6367 14.9476 0.550719 1.00305 1.4356
237 1 9.90568 9.93628 13.3816 1.08083 0.415641 -1.00497
238 1 11.6253 11.5417 14.7913 -1.50163 0.22541 0.677612
239 1 13.337 9.95598 13.1996 1.38553 -0.66582 -0.721746
240 1 15.0372 11.6009 14.9346 -0.167167 1.46548 0.0588561
241 1 0.0562593 13.1435 13.2793 -1.54822 0.582043 0.0618555
242 1 1.70454 14.7535 14.9543 0.619497 1.88332 0.461793
243 1 3.33157 13.1318 13.246 -1.3384 -0.319018 -0.615872
244 1 4.9627 14.8478 15.0244 -1.71238 -1.90829 -0.736755
245 1 6.56523 13.1603 13.208 -0.388646 1.2319 -1.17759
246 1 8.17328 14.865 14.7439 1.32346 1.18761 0.592353
247 1 9.98623 13.3343 13.2783 0.0963215 0.650918 0.642757
248 1 11.5862 15.0215 14.6554 1.0209 0.331468 -0.459833
249 1 13.3238 13.2279 13.1702 -0.663281 0.787445 0.532588
250 1 14.854 14.8257 14.8278 0.732083 0.216605 1.20871
