ITEM: TIMESTEP
260
ITEM: NUMBER OF ATOMS
250
ITEM: BOX BOUNDS pp pp pp
0.0000000000000000e+00 1.6520000000000000e+01
0.0000000000000000e+00 1.6520000000000000e+01
0.0000000000000000e+00 1.6520000000000000e+01
ITEM: ATOMS id type x y z vx vy vz
1 1 16.4814 16.4785 0.103136 -0.540173 -1.13972 -1.64876
2 1 1.79004 1.69054 1.70841 0.330907 -2.24653 0.400651
3 1 3.29131 16.4366 16.4635 -0.0842322 -0.979039 0.441975
4 1 4.98507 1.54482 1.62921 -1.0452 -1.47462 0.722051
5 1 6.55548 16.4051 16.4368 -1.21962 -0.243632 -0.577417
6 1 8.34578 1.5301 1.47887 1.5743 1.21033 -2.09364
7 1 9.98925 16.4941 16.3557 0.504629 -0.115981 -0.398687
8 1 11.5868 1.59925 1.58451 -1.04113 2.46976 -0.497005
9 1 13.2147 16.4157 16.3236 -1.35774 -1.2047 -2.91053
10 1 14.7304 1.59704 1.70901 1.31205 -1.71657 -2.72975
11 1 16.4015 3.27902 0.0662529 -0.314515 -1.64437 -0.235463
12 1 1.67552 4.91306 1.61703 -1.21113 1.17533 -0.585189
13 1 3.37235 3.3194 16.3875 0.163743 1.03287 0.5852
14 1 5.12117 4.90531 1.65461 0.393445 0.566577 -0.0959642
15 1 6.6155 3.30716 16.4978 -0.709853 1.09193 -0.20965
16 1 8.36374 5.00024 1.71506 1.09352 -1.04483 -1.37828
17 1 9.98691 3.31592 16.4211 0.667308 -1.68051 -0.2193
18 1 11.5463 5.05684 1.66449 2.48796 0.441493 0.764295
19 1 13.2132 3.30131 16.3955 1.15602 0.186267 -0.298532
20 1 14.8797 4.94618 1.59583 2.85142 2.25073 -1.02929
21 1 0.104637 6.69074 0.0656297 0.233489 0.491636 -0.882936
22 1 1.67277 8.26461 1.76601 0.882126 0.40086 3.98939
23 1 3.3411 6.69954 16.493 -0.510023 0.95634 1.10722
24 1 4.95677 8.34105 1.75026 1.71999 1.62674 0.41498
25 1 6.59225 6.65177 0.0578158 -0.791653 -1.54008 1.97355
26 1 8.42745 8.33763 1.82937 -0.226751 -1.48707 -0.402323
27 1 9.88208 6.71177 0.044774 -0.144889 -1.03533 -0.278482
28 1 11.5289 8.40382 1.75442 0.21763 1.03205 -0.0795407
29 1 13.2834 6.77725 16.4661 -0.309121 0.383229 1.21966
30 1 14.7536 8.3318 1.71698 -0.579233 1.79985 1.19202
31 1 0.0892609 10.0577 16.4583 0.761192 0.0447944 0.801763
32 1 1.69667 11.5224 1.80661 2.50483 0.765219 -0.668285
33 1 3.29821 9.90296 0.213555 -0.685559 0.084239 0.455307
34 1 5.03062 11.5702 1.80298 0.678293 0.57897 1.56755
35 1 6.57174 9.92687 0.05105 0.279641 0.89095 0.363252
36 1 8.21084 11.5945 1.57419 0.929866 2.12819 0.388637
37 1 9.82988 9.88607 0.0183667 -1.53901 -0.0227308 1.34885
38 1 11.4716 11.7563 1.65152 -0.653515 1.41984 1.22879
39 1 13.1867 9.97467 16.3735 -1.67768 2.08567 -0.73957
40 1 14.8132 11.5775 1.56195 -0.167436 0.211141 1.67218
41 1 16.4497 13.226 0.0805673 0.527364 -0.342126 1.94555
42 1 1.73874 14.882 1.64292 2.05192 0.665783 -1.44217
43 1 3.30221 13.1203 0.124351 0.0422999 1.26183 1.09457
44 1 5.03336 14.8006 1.6718 2.59496 1.93666 1.06818
45 1 6.77301 13.1551 16.4647 1.67065 -1.25249 1.89007
46 1 8.36018 14.9247 1.60124 1.02076 -0.362913 -0.0412408
47 1 9.70371 13.2663 0.00647628 -0.277889 -1.04115 -0.546054
48 1 11.4476 14.7876 1.60557 -0.607842 -1.92833 0.10648
49 1 13.2546 13.2645 16.4781 1.42082 0.0277661 -1.24013
50 1 14.6825 14.8849 1.63065 -0.903531 -0.41399 0.150204
51 1 0.0129695 0.00193136 3.21334 0.608511 -1.08125 -2.46328
52 1 1.57371 1.58307 4.99318 -0.916082 -3.13992 -0.0430774
53 1 3.36625 0.0654354 3.18817 0.00431017 -0.390849 -0.111041
54 1 5.07204 1.66886 4.94876 1.53395 -0.832237 -0.5816
55 1 6.64895 0.0321871 3.19426 -0.512946 1.09457 -0.490624
56 1 8.31576 1.78603 5.01964 -0.177432 0.932495 1.12307
57 1 9.88716 0.0823365 3.3303 0.249423 2.84583 -1.07552
58 1 11.6412 1.69641 5.15499 0.350721 0.571296 1.4647
59 1 13.0382 0.0436653 3.39749 -0.111427 1.54733 0.671953
60 1 14.9461 1.51376 4.9561 0.144511 -0.259743 0.844163
61 1 0.13905 3.32797 3.32723 -1.85496 0.762838 -0.215019
62 1 1.64576 4.98917 5.02544 -0.248445 -0.201377 0.0571199
63 1 3.3337 3.3031 3.44719 0.875084 -0.191926 -0.257648
64 1 5.03215 4.86113 5.06894 1.36743 0.469256 1.91124
65 1 6.81205 3.22867 3.31852 2.68198 1.0766 -0.655129
66 1 8.23458 4.96339 5.01259 -0.154382 -0.500292 1.59797
67 1 10.029 3.2688 3.27661 1.49967 -0.565943 1.16056
68 1 11.6719 4.93739 5.03453 -0.658008 -1.58514 1.01106
69 1 13.2707 3.28045 3.36877 -1.66902 -0.249966 2.01645
70 1 14.9448 4.92904 5.04057 1.03406 1.37698 -0.358423
71 1 0.010195 6.57606 3.2571 -0.278357 -1.04143 -0.313153
72 1 1.5569 8.28934 4.85381 1.44462 0.433279 0.0744658
73 1 3.46309 6.39651 3.32138 0.21534 0.211268 -0.793055
74 1 5.01768 8.25493 4.89014 0.888364 -1.33153 2.02439
75 1 6.61302 6.53652 3.22352 -2.10243 0.614798 1.12955
76 1 8.22452 8.09343 5.01322 0.392967 -1.43675 1.7846
77 1 9.97554 6.62252 3.46711 2.34039 -1.31861 1.24431
78 1 11.6364 8.21693 5.03184 0.661792 -0.732179 0.978823
79 1 13.1934 6.53869 3.35856 -1.97039 0.0306851 -1.77568
80 1 14.8234 8.31591 4.89831 -0.160426 1.47765 -0.587884
81 1 16.458 9.99937 3.23963 -1.12526 0.700202 1.56134
82 1 1.57994 11.5501 5.08618 1.18953 0.972743 0.170372
83 1 3.34264 9.94135 3.42867 0.565628 1.42361 -1.00236
84 1 4.98437 11.6536 4.9624 2.47822 -0.0916608 -0.618976
85 1 6.6827 10.0386 3.40864 -0.344269 0.471501 0.749098
86 1 8.2701 11.5167 5.04108 0.558712 -0.765927 1.5763
87 1 9.85629 9.92725 3.39981 -0.254382 0.379553 0.302964
88 1 11.5003 11.4634 5.07259 0.00405559 0.580153 0.9074
89 1 13.1062 9.92648 3.37526 -2.01189 0.00378196 0.613463
90 1 14.8868 11.6976 5.0269 0.802192 1.20363 0.526657
91 1 0.0796406 13.229 3.38916 1.14054 1.37042 0.383349
92 1 1.66977 15.0382 4.96364 -0.399403 2.73921 0.248425
93 1 3.23579 13.2323 3.37409 0.274823 -0.593729 -0.661901
94 1 5.06448 14.8735 4.826 0.835358 1.14502 1.59074
95 1 6.65204 13.2422 3.3717 2.01071 0.588481 1.11489
96 1 8.29675 14.8836 4.99844 -0.11169 1.09094 -0.38738
97 1 9.76109 13.3286 3.38254 0.216257 0.964516 -0.116687
98 1 11.473 14.9598 5.01228 1.2369 -0.92158 1.7078
99 1 13.076 13.0563 3.42654 -0.110868 -2.46156 0.280357
100 1 14.6148 14.8774 4.88932 1.41871 0.370627 -1.50214
101 1 0.0391852 16.4246 6.60284 -0.908611 -2.37094 -2.33169
102 1 1.6236 1.50353 8.27579 -0.574639 -0.771576 -0.822537
103 1 3.48153 0.0024494 6.46528 0.296866 0.364463 -0.0650335
104 1 4.85258 1.56589 8.33069 -0.45233 -1.57754 2.5957
105 1 6.54241 0.0741559 6.52393 -0.989293 0.439637 0.611373
106 1 8.16074 1.48459 8.17622 -2.09123 -0.0103304 0.454217
107 1 9.91119 16.5065 6.71241 -1.08594 -0.557494 -0.152953
108 1 11.7513 1.63634 8.27085 -1.38817 -0.96835 -0.276982
109 1 13.1571 16.4099 6.62302 -0.435244 -0.512822 -0.326864
110 1 14.8962 1.42051 8.25277 0.434107 -1.20788 0.167108
111 1 16.4768 3.29344 6.71802 0.521446 1.20361 0.777916
112 1 1.67029 5.09179 8.24431 0.468323 0.228052 -0.373258
113 1 3.25639 3.32267 6.82533 -2.27506 0.566456 0.81173
114 1 4.77726 5.03931 8.3585 -0.753039 0.0134561 0.00901867
115 1 6.50387 3.26794 6.67893 1.82145 -1.16399 1.41753
116 1 8.20999 5.02919 8.17488 -0.0415264 0.899034 0.306935
117 1 10.0636 3.2261 6.73635 -1.05047 -1.91796 1.8975
118 1 11.6474 4.98046 8.32787 0.343182 1.96697 0.588196
119 1 13.4497 3.28898 6.67934 -0.997095 1.43541 0.902742
120 1 15.0159 4.98603 8.26941 0.610879 0.718239 -0.359259
121 1 0.0251334 6.68799 6.53469 -0.0945734 0.86737 -0.962457
122 1 1.58477 8.39381 8.16357 -2.00011 0.144381 0.527082
123 1 3.26713 6.74514 6.46713 1.58839 1.36219 -0.588994
124 1 5.0266 8.40496 8.30052 -0.85573 -0.808573 0.865594
125 1 6.46972 6.58604 6.70071 -0.0301185 1.34449 0.557651
126 1 8.21693 8.3165 8.38438 0.0251231 -2.23682 1.37329
127 1 9.94822 6.60997 6.68363 0.403245 0.260253 0.35907
128 1 11.5732 8.29372 8.41436 -1.16423 -0.10671 0.401865
129 1 13.2937 6.67837 6.73443 0.722766 -0.62889 -0.0254928
130 1 14.9085 8.49742 8.20343 0.444613 1.24301 0.0706246
131 1 0.0218113 9.93549 6.5455 -0.980975 -1.36608 -1.57259
132 1 1.66374 11.6043 8.07853 -1.42505 0.319539 -2.519
133 1 3.40316 9.91312 6.52633 -0.604879 -1.26219 -0.120418
134 1 4.92792 11.5864 8.14918 -0.775843 0.356822 -0.409064
135 1 6.60676 9.78531 6.48469 -1.39984 -1.7186 0.122209
136 1 8.22217 11.5837 8.32051 -1.16445 1.01669 -0.989013
137 1 9.78568 9.87782 6.74524 -0.162627 0.235852 1.73394
138 1 11.5 11.5708 8.33934 -3.5097 0.467918 2.92541
139 1 13.0115 9.94827 6.59572 0.351449 0.808872 -0.918638
140 1 15.01 11.6108 8.18412 0.192516 0.637856 0.0889761
141 1 16.5082 13.1843 6.50787 1.06841 0.265154 -1.41615
142 1 1.75766 14.85 8.15063 1.15694 -1.72381 -0.604482
143 1 3.54855 13.334 6.52672 0.714834 -1.76989 1.47062
144 1 4.99772 14.7865 8.31139 1.25962 -0.218604 0.0248828
145 1 6.68033 13.2998 6.62953 1.56204 1.20123 0.40122
146 1 8.22838 14.8596 8.3707 0.607789 0.0481281 -0.543504
147 1 9.82577 13.2792 6.65284 1.65512 0.896932 1.95824
148 1 11.5064 14.7602 8.308 -2.03353 0.330298 1.20879
149 1 13.0736 13.2832 6.64554 -0.585461 1.15241 0.134729
150 1 14.9038 14.9 8.30117 1.40707 -1.15936 -1.99749
151 1 0.0645583 16.4156 10.009 -2.05804 -2.04485 -0.625223
152 1 1.66606 1.72107 11.5916 -2.92573 1.27684 -1.22036
153 1 3.27571 16.4607 10.0335 0.675842 -0.294337 -0.782839
154 1 4.72532 1.76222 11.488 -2.25003 -0.382737 0.991229
155 1 6.45549 0.0382938 10.1432 -1.38288 1.45768 0.281179
156 1 8.1831 1.74426 11.4755 -0.349264 0.977315 -0.161786
157 1 9.86235 16.45 9.92857 -0.438408 -1.14085 -0.506022
158 1 11.5644 1.72139 11.3804 -0.705935 1.33866 -0.130365
159 1 13.3048 16.4332 10.0797 1.00488 -1.62257 -0.581188
160 1 14.8617 1.80598 11.5426 -1.36031 -0.737364 0.506846
161 1 16.4405 3.32595 9.88069 3.11701 1.06148 -1.16884
162 1 1.5331 5.00444 11.4794 -0.243933 -2.061 0.854128
163 1 3.08958 3.14015 9.89986 -1.3948 -0.992568 -1.30434
164 1 4.80664 5.07499 11.4649 -1.06249 0.515643 -0.547237
165 1 6.41283 3.33032 9.85712 0.885341 -1.91524 1.03131
166 1 8.06315 4.88223 11.5038 -0.357329 -1.79301 -1.11725
167 1 9.76742 3.30266 9.71056 1.22303 -1.4487 -1.04782
168 1 11.6498 4.90347 11.4923 1.83903 1.18683 0.57291
169 1 13.3276 3.28572 9.73401 1.58852 -0.719971 0.757532
170 1 14.8862 4.91892 11.514 0.53948 0.35844 -0.2553
171 1 16.4685 6.68892 9.85933 0.569766 0.487214 -0.595255
172 1 1.617 8.28189 11.4719 0.30808 0.31465 1.10909
173 1 3.04322 6.66374 9.82297 0.774708 0.105812 -0.514302
174 1 4.88788 8.16338 11.5391 1.42844 -2.01267 -0.853224
175 1 6.65863 6.61124 10.0456 -1.39473 1.41306 -0.820207
176 1 8.33945 8.18203 11.6615 -1.14365 0.88475 0.521017
177 1 9.80754 6.57175 9.99306 -0.114104 1.85218 -1.67118
178 1 11.5319 8.17714 11.585 -1.60271 0.643829 0.25065
179 1 13.2554 6.6306 9.89246 1.54838 0.700723 -0.957514
180 1 14.7829 8.30825 11.5203 -1.40751 0.961455 -1.64538
181 1 0.036497 10.0339 9.88325 0.0307994 1.67136 -1.66354
182 1 1.81538 11.5259 11.4629 1.25162 0.254522 0.231828
183 1 3.44013 9.9016 9.82427 0.292791 -0.140969 0.606969
184 1 5.05532 11.5803 11.5172 1.12603 -0.897338 0.651558
185 1 6.51465 9.8659 9.96279 -1.59873 -1.00595 0.582887
186 1 8.34994 11.4847 11.5579 -0.584161 -1.87991 0.764455
187 1 9.81374 9.77435 10.0604 -0.14548 -2.06754 -0.0464928
188 1 11.4953 11.5718 11.3855 -0.310326 -1.25557 -0.908587
189 1 13.2748 9.96499 9.95615 -0.16724 0.019969 2.46019
190 1 14.8675 11.5354 11.396 -0.670046 1.70632 -0.105322
191 1 0.0781171 13.1986 9.80273 0.206646 -1.19696 -0.172435
192 1 1.67258 14.673 11.5217 0.587663 -1.37743 0.508005
193 1 3.3107 13.1548 9.78032 1.45818 -1.54876 -0.43945
194 1 4.90457 14.7628 11.6266 0.144292 -0.643409 -0.772854
195 1 6.60965 13.2846 9.94286 -0.387279 0.0785282 -0.590851
196 1 8.34035 14.8579 11.5933 2.1569 -3.16393 -1.1143
197 1 9.99318 13.1972 9.9227 0.649965 -0.415512 -0.341968
198 1 11.5951 14.8371 11.3758 -0.896003 -1.01758 -0.46751
199 1 13.3285 13.2708 9.79542 0.142575 0.681691 0.396767
200 1 14.9638 14.8651 11.7159 1.39019 0.196222 -0.124
201 1 0.161299 0.0150519 13.2321 1.30303 0.81321 -1.23065
202 1 1.64455 1.66743 14.8559 0.0959155 -0.575007 0.150553
203 1 3.25741 16.419 13.2028 -1.42443 -0.0322268 -1.48647
204 1 4.99291 1.58528 14.8437 -1.02232 -1.08327 -0.646541
205 1 6.65918 0.131676 13.0411 -1.03611 -0.446482 -2.62178
206 1 8.26409 1.6252 14.7688 0.468075 1.73922 -1.72423
207 1 10.035 0.0352711 13.1648 -2.44837 2.06874 0.000438724
208 1 11.6352 1.57559 14.6702 -1.82818 1.16536 0.0922224
209 1 13.211 16.4681 13.0675 -0.0955461 -1.14396 -1.49127
210 1 14.8267 1.59578 14.9621 -1.19912 0.45382 -1.49137
211 1 16.4744 3.32801 13.2278 1.11224 -2.14269 1.15071
212 1 1.60089 5.03708 14.921 0.0362827 -0.26197 2.08779
213 1 3.26132 3.36159 13.2576 -0.36235 0.00492651 -0.746597
214 1 4.90735 4.96975 14.8989 -0.842671 2.04627 3.36794
215 1 6.49582 3.25751 13.33 0.243944 -0.0526369 -0.129684
216 1 8.2381 4.9979 14.9451 0.481157 -1.35825 -0.191553
217 1 9.77711 3.43441 13.1753 0.75698 -0.263075 -0.902472
218 1 11.6425 5.00622 14.8399 2.08848 -0.572232 -0.0265115
219 1 13.1242 3.33785 13.0969 0.576935 0.633642 -1.28833
220 1 14.802 5.01202 14.8813 -0.849737 1.69536 -1.1036
221 1 16.4103 6.55146 13.2272 0.164738 -0.599282 0.149079
222 1 1.61929 8.31911 14.8367 -1.05423 0.695705 -0.844959
223 1 3.18038 6.58566 13.1576 0.0403852 -0.331189 -0.35742
224 1 4.91945 8.21854 14.8336 -2.06576 -2.16669 1.7883
225 1 6.59408 6.59063 13.2821 -1.29084 1.57798 0.831213
226 1 8.15735 8.32804 14.9071 0.465383 0.824868 -1.22821
227 1 9.83477 6.54524 13.2353 -1.22813 0.871686 -0.856592
228 1 11.5493 8.26183 14.9832 -0.496517 1.02345 -0.409794
229 1 13.1762 6.66088 13.2396 -0.0141963 0.274183 0.908883
230 1 14.8124 8.36277 14.7885 -1.86283 2.64799 1.20978
231 1 0.0874263 9.8799 13.1238 0.343888 0.309865 0.210214
232 1 1.90354 11.3948 14.8769 1.1916 -0.531286 -0.683859
233 1 3.43694 9.89595 13.1969 -1.47885 1.18335 -0.303117
234 1 4.87406 11.6181 14.987 -1.03541 0.82939 0.201179
235 1 6.56807 9.79257 13.2297 -0.148522 -0.657585 1.66189
236 1 8.12804 11.5615 14.857 0.279802 0.311949 -0.32839
237 1 9.87147 9.87927 13.2695 -0.0982635 0.921803 -1.3639
238 1 11.6155 11.728 14.8743 0.528804 -1.4172 -0.449768
239 1 13.1396 9.91256 13.2546 -1.27804 0.174575 -0.595029
240 1 14.945 11.5486 14.8334 0.219661 1.65802 -1.38695
241 1 0.101234 13.0101 13.1394 -0.281227 -1.75381 -1.03069
242 1 1.62882 14.6772 14.9181 -0.387259 -1.26534 -0.0263171
243 1 3.37771 13.0889 13.1757 -0.77999 0.242685 0.909474
244 1 4.95952 14.7798 14.8399 0.0337691 -1.44003 0.515368
245 1 6.63272 13.1757 13.1152 0.395399 -0.664789 -1.52714
246 1 8.27146 14.9055 14.6727 -1.99823 0.858126 -1.61249
247 1 9.95269 13.1466 13.1174 -0.847283 -2.09258 -3.50572
248 1 11.5919 14.7746 14.7545 0.571857 -0.94736 -0.528442
249 1 13.2456 13.1508 13.1236 -0.27459 -1.06131 -1.45496
250 1 14.9732 14.8458 14.7791 1.18905 0.673256 -1.35532
