ITEM: TIMESTEP
970
ITEM: NUMBER OF ATOMS
250
ITEM: BOX BOUNDS pp pp pp
0.0000000000000000e+00 1.6520000000000000e+01
0.0000000000000000e+00 1.6520000000000000e+01
0.0000000000000000e+00 1.6520000000000000e+01
ITEM: ATOMS id type x y z vx vy vz
1 1 0.000761333 0.0638808 0.0861073 0.176108 -2.08448 0.633055
2 1 1.7219 1.59368 1.62101 -1.05342 -0.534967 1.55792
3 1 3.41166 16.4905 0.0343785 0.9385 -1.29977 0.919505
4 1 4.92663 1.61938 1.739 -1.5155 0.0684319 0.663929
5 1 6.59762 16.4279 0.100596 0.326905 0.00237689 -0.712551
6 1 8.25568 1.53501 1.63855 -0.265415 1.18176 0.325227
7 1 9.8626 16.4172 0.107278 1.39569 0.23483 -2.71368
8 1 11.5498 1.60693 1.72636 -0.321263 -0.494394 0.314499
9 1 13.2585 16.4007 0.0811553 -0.621749 -1.02618 -1.54759
10 1 14.8999 1.69054 1.76864 1.47136 1.89224 -2.06933
11 1 16.4887 3.2192 0.0697792 0.415693 -0.308925 0.50448
12 1 1.53139 4.98922 1.75674 -1.02884 -0.100732 -0.150821
13 1 3.34478 3.42726 0.0300369 -1.97435 -0.660391 -0.0849009
14 1 4.81975 5.03131 1.61365 0.506079 1.21583 -1.31362
15 1 6.53962 3.32441 0.0275076 0.139734 -0.0373648 -0.497536
16 1 8.1782 4.87575 1.50333 -2.08129 -0.715741 0.917104
17 1 9.85408 3.30262 0.046364 1.43379 2.33106 1.97631
18 1 11.522 4.87352 1.73481 -1.97068 -1.91584 -1.45374
19 1 13.1824 3.23907 0.00275854 -0.720786 0.457113 0.604154
20 1 14.756 4.90896 1.60816 0.123014 0.884542 -0.174501
21 1 0.0424636 6.54861 0.0435854 -0.410216 1.03811 1.01501
22 1 1.65387 8.15653 1.63482 0.0153136 1.30312 1.91951
23 1 3.25051 6.64395 16.4315 -1.37567 -0.440592 1.15072
24 1 4.89132 8.15232 1.51718 2.06005 -0.230185 -0.705039
25 1 6.56558 6.5534 16.4918 -0.975308 -0.780857 -0.379318
26 1 8.23928 8.2365 1.5042 1.06222 -0.342051 -2.16903
27 1 9.89971 6.46257 16.5075 0.47265 -0.515657 -1.66388
28 1 11.5083 8.22246 1.54925 -1.31962 -0.72107 -2.04455
29 1 13.1674 6.57527 16.4664 0.423822 -0.650441 -0.00129946
30 1 14.8078 8.32797 1.75906 0.0196177 0.617219 -0.640856
31 1 16.4374 9.86722 0.0205602 1.36305 0.794006 -0.456827
32 1 1.64363 11.5179 1.58415 -3.24449 -0.769916 1.22063
33 1 3.37118 9.84516 16.3358 -1.17669 -0.53024 2.00665
34 1 5.04865 11.4913 1.44442 1.93112 -2.23761 0.368594
35 1 6.63249 9.77984 16.4075 0.171568 0.246814 -1.69137
36 1 8.22999 11.6044 1.54297 -1.4994 0.136357 1.80094
37 1 9.9745 9.86293 16.4229 0.772599 -0.635855 -0.184109
38 1 11.5041 11.5933 1.6751 -1.31085 -0.773124 3.01915
39 1 13.1994 9.81241 0.053869 -0.228546 0.246565 -0.27166
40 1 14.8148 11.5347 1.62852 -0.288305 1.43237 -0.952961
41 1 16.419 13.2349 0.0582544 -0.946916 -0.645172 -0.462354
42 1 1.58749 14.8376 1.6785 0.776625 -0.874936 0.412483
43 1 3.21731 13.1745 16.413 0.255134 0.151043 -0.297766
44 1 4.86697 14.8084 1.727 0.0244315 -0.250325 -1.37983
45 1 6.64912 13.2045 16.4555 2.60977 1.15617 0.181512
46 1 8.16838 14.8355 1.71845 -0.739753 -2.10463 -1.1744
47 1 9.90832 13.1556 16.4956 0.365599 -0.661522 1.65468
48 1 11.6112 14.8164 1.73208 -0.463245 0.242527 -0.657589
49 1 13.1007 13.1706 0.0278706 -0.78347 0.268101 3.01858
50 1 14.8504 14.848 1.74209 -0.408535 0.24236 -0.923864
51 1 16.4823 16.4747 3.44081 0.604655 1.70203 1.23813
52 1 1.62999 1.56424 5.00656 0.174025 0.176222 0.178
53 1 3.22308 16.4836 3.24944 0.3688 0.723766 -1.08913
54 1 4.99062 1.56318 4.96113 0.349603 0.72517 -1.52841
55 1 6.57898 16.4596 3.33109 0.834103 -0.275921 -0.0734656
56 1 8.17101 1.54135 4.91174 0.685288 0.238831 0.102984
57 1 9.94703 16.4521 3.3701 2.27492 -1.88967 -0.120886
58 1 11.5182 1.6385 5.04985 -0.0263041 -0.386206 0.609022
59 1 13.2282 16.5091 3.41243 -0.341373 1.2191 -1.04009
60 1 14.913 1.62423 4.97413 0.809051 -0.062966 -1.19422
61 1 16.452 3.30811 3.31969 -0.949843 -0.874326 -0.863541
62 1 1.49284 4.99431 4.94213 -0.127776 -2.49146 -1.033
63 1 3.26502 3.35536 3.25566 -1.96256 0.790711 -0.87354
64 1 4.9071 4.90431 4.88866 -1.16276 -0.766295 -0.134591
65 1 6.53912 3.3557 3.28049 0.437356 -1.14776 1.42815
66 1 8.20445 4.90642 4.91382 1.03685 -0.5264 -0.129707
67 1 9.82903 3.3472 3.30069 -0.585909 -0.872489 0.975496
68 1 11.5321 4.94118 4.95464 0.0959654 -0.877502 -0.455755
69 1 13.1413 3.22323 3.3978 -0.866479 -0.827781 1.78831
70 1 14.6929 4.83637 5.01555 -0.247905 -1.562 -0.484522
71 1 16.3531 6.59924 3.29201 -3.09576 1.31826 -0.410186
72 1 1.68219 8.22702 4.99966 2.38082 1.55398 -1.5885
73 1 3.25726 6.60163 3.26458 0.245036 -1.61588 -0.435186
74 1 4.96944 8.20826 4.83656 0.397677 -0.437265 -0.213584
75 1 6.59849 6.52629 3.16458 -0.849563 0.595452 0.0103949
76 1 8.12629 8.2758 4.73162 -0.0435294 -0.421536 -1.00386
77 1 9.90428 6.55857 3.21067 -0.0949932 -1.31513 0.598873
78 1 11.5872 8.21892 4.78965 0.154239 -0.75952 -0.16404
79 1 13.1269 6.49703 3.26414 -0.868669 -0.0228145 -0.365954
80 1 14.837 8.27966 4.9106 -1.38397 -0.079465 -0.937969
81 1 16.481 9.80073 3.33992 -0.284087 -1.11839 1.22807
82 1 1.69432 11.53 4.87447 -0.282613 -1.01406 -1.14473
83 1 3.26454 9.84763 3.11666 -0.321227 -2.36447 -1.10406
84 1 4.96259 11.5305 4.9638 1.38887 -0.892296 -1.94971
85 1 6.58379 9.92985 3.19182 -0.0494611 0.836177 -0.567554
86 1 8.25328 11.5812 4.90319 -0.813648 -0.107744 -1.87502
87 1 9.86038 9.86251 3.20644 -0.225452 0.318332 -0.414614
88 1 11.4765 11.6166 4.937 -1.83714 -1.62625 -0.18847
89 1 13.1789 10.0266 3.29411 0.539305 2.74307 -1.07514
90 1 14.8443 11.5631 4.95348 0.0371664 -0.154442 -0.573553
91 1 16.5113 13.2124 3.41778 -0.728214 0.842179 2.29185
92 1 1.57295 14.9169 4.98986 1.68586 1.3178 -1.47826
93 1 3.19592 13.1604 3.22088 1.8138 0.426052 -1.13957
94 1 4.85136 14.8348 4.91309 -1.37035 0.66793 -0.140844
95 1 6.43417 13.1409 3.22913 -1.39554 -1.58336 1.23885
96 1 8.28564 14.7126 4.93398 0.408593 -0.0211048 -0.444916
97 1 9.81375 13.1589 3.2319 0.525141 0.410327 0.83764
98 1 11.6357 14.8245 5.01793 0.687676 2.43902 1.33113
99 1 13.1762 13.191 3.32646 -3.08087 2.5003 -0.672278
100 1 14.8593 14.8645 5.03304 -0.770984 0.418469 1.40077
101 1 0.0362619 0.109205 6.71504 0.528431 0.108461 0.452461
102 1 1.73737 1.76592 8.33587 -0.161865 1.75814 0.883318
103 1 3.25216 16.4924 6.62108 -0.413591 -1.68519 -0.282434
104 1 5.06717 1.60949 8.35744 -0.740347 -0.367748 -0.168459
105 1 6.56353 16.5009 6.63428 0.915592 -0.535068 1.02678
106 1 8.34296 1.58763 8.3521 -0.605189 -0.579097 0.750782
107 1 9.92157 16.4459 6.65571 -0.0832142 1.00958 -0.139323
108 1 11.5752 1.62337 8.30886 0.158658 -0.31809 1.69385
109 1 13.2806 16.4686 6.67137 1.4065 -0.764627 -0.349079
110 1 14.8545 1.72165 8.37351 0.866849 -1.41786 -0.198822
111 1 16.4702 3.33971 6.68578 0.503815 0.0732273 0.193396
112 1 1.67323 4.94693 8.22425 0.184129 -1.3267 -1.27482
113 1 3.35311 3.33548 6.58177 -1.3513 -0.38734 0.611947
114 1 5.02684 4.94014 8.15549 -1.96289 -0.654445 -1.36631
115 1 6.69829 3.28468 6.53111 0.801069 1.96998 -0.882107
116 1 8.29423 4.91244 8.21182 0.39937 1.81153 1.00706
117 1 9.86125 3.19071 6.69511 0.711701 0.880542 0.721133
118 1 11.561 4.93848 8.21671 -1.48972 3.10196 1.86598
119 1 13.1897 3.16244 6.66808 0.315577 0.34485 1.29297
120 1 14.8061 5.03694 8.31669 0.00773783 -0.213321 0.463892
121 1 16.4817 6.62768 6.64491 -1.08761 -0.731331 -0.779862
122 1 1.72131 8.28636 8.27062 0.426656 -1.21885 1.80771
123 1 3.33444 6.60719 6.52201 0.831743 -0.895044 -0.337341
124 1 4.90666 8.24557 8.18713 0.298644 3.18603 -1.42042
125 1 6.59703 6.67791 6.52537 -0.606248 -0.114125 -0.593455
126 1 8.23357 8.28727 8.12193 -0.525621 0.440504 0.274005
127 1 9.8759 6.70485 6.51827 1.00795 1.1269 -0.877856
128 1 11.562 8.26154 8.12631 -0.345855 0.509289 -0.403127
129 1 13.1546 6.61978 6.48209 -0.844216 -2.06666 0.818929
130 1 14.9221 8.24156 8.29318 0.818452 1.73652 0.793889
131 1 0.0185924 9.88718 6.65598 0.790219 -0.0342542 0.221936
132 1 1.64283 11.5576 8.30021 -1.68155 -0.973673 -0.319405
133 1 3.27913 9.91735 6.53385 -0.0251466 0.420617 -0.738637
134 1 4.89119 11.5672 8.13964 -0.550393 0.83009 -2.52149
135 1 6.60819 9.89479 6.45339 1.92181 -0.987235 -1.05005
136 1 8.15903 11.5545 8.03877 -1.05708 1.79254 -0.86381
137 1 9.97222 10.0031 6.58145 -0.960712 -1.4452 0.164559
138 1 11.5118 11.6044 8.17463 -0.0088673 1.51071 -0.530189
139 1 13.2244 9.9158 6.47004 2.12212 0.296749 0.477438
140 1 14.8664 11.5911 8.27181 2.77649 1.08915 -1.43879
141 1 0.00622024 13.2396 6.68337 -0.902911 -0.351559 -0.377683
142 1 1.61459 14.9391 8.33437 0.0637129 1.43614 -1.26465
143 1 3.28596 13.2325 6.73348 -0.140577 -0.223404 0.043821
144 1 4.9531 14.8993 8.28724 0.31662 1.28178 -0.0425596
145 1 6.54999 13.2626 6.58919 0.41271 -1.25291 0.881176
146 1 8.156 14.996 8.247 -0.147103 -0.896006 2.1542
147 1 9.91045 13.2757 6.65527 -2.0129 -0.691185 -0.270938
148 1 11.5762 14.8645 8.20394 0.73839 -0.672284 0.744161
149 1 13.3137 13.3004 6.6914 -0.453713 1.36174 -1.42954
150 1 14.9023 14.9167 8.48377 -0.0540669 -0.334763 -0.0922037
151 1 0.0510513 0.137916 9.93581 -1.53043 0.167914 1.58726
152 1 1.72408 1.79519 11.6817 1.73252 3.37446 0.508169
153 1 3.35025 0.121342 9.96781 0.616717 1.80426 -0.498175
154 1 4.92722 1.75677 11.6108 0.542644 0.557266 0.0682801
155 1 6.65595 0.124915 10.0277 0.307279 -1.1026 2.17643
156 1 8.324 1.69383 11.6929 1.60432 2.05734 0.465177
157 1 10.0711 0.077447 10.011 -1.29759 -0.114175 0.442902
158 1 11.667 1.57355 11.7154 1.66705 -0.165488 0.237399
159 1 13.3244 0.0504654 10.1243 0.276645 0.109299 0.223333
160 1 14.9006 1.72919 11.6351 -0.89702 1.55224 0.445598
161 1 0.0192719 3.34789 9.97559 0.633802 1.79675 -0.201424
162 1 1.71752 5.03127 11.5244 -1.81661 1.40085 0.00943283
163 1 3.43372 3.39093 9.90444 0.309164 -0.242862 -1.67165
164 1 5.06909 4.95584 11.5214 -0.676548 -0.570617 -0.746785
165 1 6.735 3.34132 9.8603 -0.571688 -0.686583 -1.4588
166 1 8.32493 4.98058 11.5288 -0.524827 -0.449265 0.790817
167 1 9.96537 3.26347 9.938 3.52612 -0.39531 -0.319803
168 1 11.6335 4.91026 11.5847 -1.20582 -0.0773642 -1.14998
169 1 13.2809 3.32262 9.89144 1.48955 -0.947352 1.96378
170 1 14.8536 4.9755 11.5421 1.03177 -0.463043 0.0777452
171 1 0.0713991 6.74265 9.89352 0.873573 -0.10641 0.747023
172 1 1.75009 8.25796 11.4609 -1.29919 0.40328 0.286984
173 1 3.28813 6.58184 9.75279 -1.30873 -0.126092 -0.41863
174 1 5.01754 8.25543 11.4603 0.205286 0.172187 0.417045
175 1 6.67244 6.68122 9.86427 -1.71785 0.697861 2.02159
176 1 8.27411 8.30629 11.5161 1.127 -1.40168 -1.02426
177 1 9.96254 6.69868 9.7819 2.21388 0.499518 -0.768006
178 1 11.5926 8.23722 11.5753 -0.599089 -0.29084 0.32058
179 1 13.1997 6.56038 9.97482 0.486518 0.623117 -2.33814
180 1 14.9097 8.39256 11.5235 -0.616086 -1.24724 1.42231
181 1 0.0095193 9.92891 9.86677 1.2091 -1.43047 0.539919
182 1 1.61379 11.5971 11.6211 0.68846 -1.63459 -1.78391
183 1 3.38491 9.87192 9.91999 -0.124313 1.60655 -1.63589
184 1 5.05084 11.6238 11.5428 -0.546907 -1.53655 -0.904584
185 1 6.56719 9.98827 9.76419 -0.54946 -1.18359 0.579123
186 1 8.23229 11.5867 11.5411 0.28007 0.397933 -0.626357
187 1 10.0296 9.86543 9.78011 -0.186364 -0.241414 -1.37692
188 1 11.543 11.5829 11.5205 -0.739176 -0.428487 0.78337
189 1 13.3825 9.97574 9.83893 -0.463546 -1.60834 -0.963342
190 1 14.8567 11.6178 11.5834 1.67611 -0.516177 0.39327
191 1 16.4822 13.2277 10.0032 1.16495 -0.614305 2.39891
192 1 1.57869 14.8597 11.613 0.23079 -0.417615 0.0467206
193 1 3.25545 13.2495 9.90456 -1.60821 0.642151 1.01348
194 1 4.94075 14.8549 11.6151 0.617276 0.648301 0.865612
195 1 6.60422 13.3211 9.89477 -1.50655 1.07666 1.69953
196 1 8.29445 14.9277 11.7125 0.254926 2.22477 1.15639
197 1 9.87812 13.3353 9.9521 0.215188 1.43448 -0.793939
198 1 11.535 14.9377 11.6895 -1.01866 0.215274 -0.131139
199 1 13.2227 13.274 9.97866 -1.34737 -0.0169592 -1.34434
200 1 14.9933 14.9554 11.7185 -0.602289 -0.390397 2.12201
201 1 0.0292075 0.0535488 13.2552 -0.423432 -0.198736 0.209949
202 1 1.73255 1.63252 15.0124 0.264958 -0.185062 -0.460233
203 1 3.33049 0.069063 13.2021 -1.11357 -0.327349 0.574451
204 1 5.02814 1.65815 14.8856 -0.386322 0.0717946 -1.51856
205 1 6.67815 0.0574137 13.3331 1.07559 0.301411 0.944115
206 1 8.3022 1.67857 14.8851 0.680447 0.540917 1.57268
207 1 10.0669 0.046936 13.3986 -1.51275 2.12836 1.10593
208 1 11.6717 1.67296 15.0126 2.14108 -0.378131 0.932666
209 1 13.2324 16.5142 13.3173 0.979019 0.402481 -0.296176
210 1 14.9348 1.65824 14.9295 -1.19922 -0.819 -1.09794
211 1 0.1094 3.3205 13.2822 -0.659233 -0.0764728 -0.218167
212 1 1.65729 5.10645 14.834 1.00441 0.0742434 0.155579
213 1 3.37188 3.46341 13.2483 0.367508 1.60722 -1.91645
214 1 4.98355 4.93363 14.8806 -1.66651 -0.575204 -0.0520656
215 1 6.65831 3.27822 13.2753 0.722723 -0.136152 0.536034
216 1 8.34847 4.90301 14.842 -2.1819 -1.93448 0.602613
217 1 10.0033 3.34644 13.3059 1.62348 -0.0194378 1.72565
218 1 11.619 4.93363 14.9237 -0.396646 0.356014 0.969675
219 1 13.3025 3.33138 13.375 3.45567 -0.195085 0.412099
220 1 14.861 4.96526 14.9439 -0.00577841 0.912368 -0.290463
221 1 0.0316897 6.59881 13.2422 -1.35878 1.4305 1.33448
222 1 1.7094 8.25116 14.8301 0.953731 0.431209 0.781123
223 1 3.34714 6.68848 13.1311 -0.666339 0.323281 0.249943
224 1 5.06994 8.22096 14.7187 0.0776717 -0.429811 2.16649
225 1 6.65114 6.64267 13.0775 -0.779716 -0.795185 -0.045423
226 1 8.28118 8.23717 14.6849 0.915241 0.227687 0.112467
227 1 10.0065 6.55395 13.041 -0.265128 -0.883342 -0.679689
228 1 11.4749 8.18504 14.8235 0.794095 0.970788 -0.867155
229 1 13.2939 6.52821 13.2354 0.658149 0.339933 0.842102
230 1 14.8353 8.37087 14.8042 1.72611 -2.00216 0.602617
231 1 0.105084 9.88146 13.1911 2.68679 1.62322 1.50614
232 1 1.59408 11.4658 14.8264 1.4111 0.699203 -1.66715
233 1 3.22225 9.88957 13.1681 0.794024 1.50165 -1.20919
234 1 4.88023 11.5419 14.8003 -0.3379 0.927116 -2.24664
235 1 6.6285 9.97226 13.1368 1.20423 -2.07157 1.18299
236 1 8.22908 11.5373 14.8891 0.0311742 -0.961712 0.354209
237 1 9.98765 9.96518 13.092 -0.459939 -0.565013 0.847634
238 1 11.6676 11.5596 14.8126 -1.62995 0.116131 -2.42843
239 1 13.205 9.92405 13.1513 0.314512 -0.720465 -1.52274
240 1 14.7837 11.4886 14.9485 -1.10924 -0.872253 0.361881
241 1 16.4552 13.2797 13.4184 1.08269 -0.658625 0.8248
242 1 1.65827 14.9469 14.9572 -0.0533293 0.65874 0.981104
243 1 3.24928 13.2578 13.217 -1.22249 -1.69281 -1.016
244 1 4.98612 14.8809 14.8629 0.556443 0.154304 0.623212
245 1 6.59053 13.259 13.2102 -1.08258 0.803197 0.149419
246 1 8.31185 14.8539 14.9559 1.3021 -0.71899 1.54497
247 1 9.83041 13.2579 13.2681 0.833137 0.915089 0.662938
248 1 11.5542 14.8846 14.9474 0.571086 -0.649749 -1.44523
249 1 13.2324 13.2442 13.2236 0.191106 -1.8133 0.539902
250 1 14.848 14.8272 14.9206 0.0598876 0.498889 0.823194
