ITEM: TIMESTEP
790
ITEM: NUMBER OF ATOMS
250
ITEM: BOX BOUNDS pp pp pp
0.0000000000000000e+00 1.6520000000000000e+01
0.0000000000000000e+00 1.6520000000000000e+01
0.0000000000000000e+00 1.6520000000000000e+01
ITEM: ATOMS id type x y z vx vy vz
1 1 0.0278962 0.0875628 16.4768 1.08987 -1.98558 0.595595
2 1 1.63173 1.63395 1.68918 0.808344 1.70739 2.03769
3 1 3.30093 16.4985 16.4202 0.81506 1.17988 0.368754
4 1 4.98403 1.57545 1.74832 0.665064 -0.469492 -1.15568
5 1 6.47921 16.4503 0.0676351 -0.403866 -1.21729 -1.17917
6 1 8.25136 1.69726 1.68958 0.228586 0.989726 -0.806772
7 1 9.87002 0.0477414 0.107654 0.210576 0.0383984 0.489706
8 1 11.5654 1.67448 1.77679 0.185819 -1.03126 0.755324
9 1 13.1523 0.0358048 0.0483765 -0.488447 -0.620815 0.101815
10 1 14.7927 1.78979 1.56208 0.0676313 -0.17914 0.543999
11 1 0.0466095 3.38006 16.5004 2.61436 0.229623 1.51487
12 1 1.74838 4.94694 1.5735 -0.387443 0.0202635 -0.324679
13 1 3.33349 3.38281 0.0459144 -0.605328 -0.0978089 0.553663
14 1 4.95865 5.03905 1.60498 -1.04281 -1.62845 0.465879
15 1 6.60117 3.27203 0.0526456 0.324478 0.0925969 0.794362
16 1 8.27003 5.03011 1.66879 -0.493753 -0.912043 0.39795
17 1 9.86957 3.24672 0.0566671 0.173842 -0.11296 0.713565
18 1 11.5657 4.94447 1.52766 2.73305 0.84902 -2.31212
19 1 13.2468 3.23468 16.4634 1.41883 -1.19615 2.26305
20 1 14.8705 5.00489 1.64902 -1.68393 -0.273285 0.558317
21 1 16.488 6.62368 16.5031 -0.762017 -0.515216 -1.06617
22 1 1.58975 8.25047 1.64183 0.735467 -0.604956 -1.73626
23 1 3.33825 6.66253 16.4063 -1.09789 1.03858 -0.553879
24 1 4.95935 8.27435 1.61573 0.428813 -0.358784 -2.62079
25 1 6.60553 6.56574 16.4566 -0.0544506 0.0876198 -0.374314
26 1 8.29959 8.29217 1.62791 0.271603 -1.73462 1.28571
27 1 9.94709 6.57703 16.5024 -0.999513 0.181531 0.00304216
28 1 11.5678 8.23519 1.69371 -0.146955 0.687811 0.547421
29 1 13.2758 6.51525 16.4859 -0.370708 -1.31425 1.71859
30 1 14.8343 8.25364 1.69881 -1.29678 -0.846724 -0.726816
31 1 0.00151433 9.81426 0.00237543 0.39615 -0.225638 -0.639674
32 1 1.73698 11.5498 1.62065 0.405704 0.661463 1.06184
33 1 3.34309 9.84523 16.4948 -1.27857 -2.36874 -0.879366
34 1 4.93703 11.5274 1.64256 -3.26238 0.621096 -1.56165
35 1 6.57338 9.89003 16.4542 -0.120466 1.8723 -1.28115
36 1 8.29437 11.5693 1.46728 -0.849331 0.217178 -0.790616
37 1 9.89817 9.76794 16.5038 -0.0882016 -0.700693 0.553438
38 1 11.6642 11.5683 1.5775 0.0418354 0.27129 -0.862231
39 1 13.2418 9.85274 16.4806 -0.784413 -0.77167 -3.53964
40 1 14.8956 11.5649 1.60831 -0.641625 -0.231143 0.839147
41 1 16.4415 13.1811 0.0544171 -1.31859 0.159099 1.73659
42 1 1.70835 14.8988 1.5543 -1.14492 -0.732372 -0.189562
43 1 3.31539 13.2683 16.5197 -1.24716 -0.417849 -0.0196286
44 1 4.84872 14.7272 1.616 -0.819867 -0.677709 0.74759
45 1 6.63291 13.2375 16.5045 -2.37105 -0.0779208 -0.513656
46 1 8.28599 14.8026 1.68099 -1.22108 -0.308396 0.465407
47 1 9.9724 13.2829 0.0815667 -0.674087 0.138053 0.350605
48 1 11.6255 14.8668 1.72191 0.558877 -2.21366 -0.156409
49 1 13.272 13.1984 0.0554924 1.38469 -0.979901 0.800391
50 1 14.9316 14.9457 1.60989 -2.23934 -0.500987 1.37975
51 1 0.0100132 0.091771 3.2796 -1.87264 1.13985 -0.96873
52 1 1.68069 1.79732 5.00777 -0.221127 -0.492511 -0.0705149
53 1 3.2603 16.497 3.2156 0.201915 2.42218 0.375367
54 1 4.99703 1.60932 4.92947 0.963305 -1.61973 -0.435704
55 1 6.51343 16.4727 3.25722 -0.0588632 -0.151492 -0.417425
56 1 8.22338 1.54821 4.83845 -0.287631 0.188776 0.765362
57 1 9.93085 0.00163008 3.29225 -0.749404 -0.102962 -1.11081
58 1 11.5077 1.67726 4.89133 0.616586 -0.298566 1.5388
59 1 13.1587 16.5165 3.34089 -0.432056 0.911121 0.315832
60 1 14.8645 1.66482 4.95933 1.61821 -0.770595 0.0154278
61 1 0.0989691 3.25887 3.24588 0.140382 0.0433072 0.613388
62 1 1.62906 4.89973 5.09051 -0.625653 -0.845342 0.412366
63 1 3.31871 3.35147 3.33888 -1.88881 0.0325349 0.128056
64 1 4.9552 5.06308 4.98549 0.139933 -0.390378 -1.10724
65 1 6.5487 3.292 3.33777 1.0915 -1.00357 -1.78186
66 1 8.22641 4.97392 4.93667 -0.0862074 0.743292 0.49308
67 1 9.80926 3.35357 3.2424 -0.196989 -0.171351 -0.466854
68 1 11.6585 5.0371 4.95128 -0.35 0.686458 -1.29079
69 1 13.3419 3.34706 3.29498 -0.268243 -0.471543 -0.23946
70 1 14.906 4.91923 4.96703 1.98618 -0.0970932 2.39372
71 1 0.0655614 6.61661 3.22664 -1.09365 -1.90671 0.314769
72 1 1.54866 8.21408 5.00997 -0.23549 0.393087 -0.3573
73 1 3.31188 6.63123 3.28396 -0.305929 0.0288939 0.687766
74 1 4.88686 8.28146 4.92372 -0.363875 -1.87807 -1.0457
75 1 6.54946 6.73918 3.31693 -1.76631 0.412878 -2.63986
76 1 8.27763 8.41146 4.85988 -0.805226 -0.333812 -1.34242
77 1 9.85638 6.60269 3.22025 -0.400886 0.273664 1.06191
78 1 11.5692 8.21962 4.93477 -0.14722 0.706147 -2.18287
79 1 13.1953 6.5655 3.31376 -0.575742 -0.0344908 -1.34224
80 1 14.9295 8.16844 4.867 0.960102 -1.81719 1.13052
81 1 0.0585525 9.879 3.24384 0.373939 -0.804898 -1.87839
82 1 1.60998 11.5534 5.09726 -0.397563 1.21517 0.00248308
83 1 3.26611 9.8481 3.35296 0.795637 -0.656654 -1.27783
84 1 4.89678 11.5041 4.93576 -0.357332 1.80144 -2.24564
85 1 6.5578 9.97898 3.22009 1.1283 -1.46988 -0.664831
86 1 8.2389 11.5525 4.92155 -0.121627 -0.586459 1.43791
87 1 9.91049 9.99751 3.19827 0.159521 0.340883 1.00297
88 1 11.7011 11.5813 4.88321 -0.943016 -2.69637 -0.107426
89 1 13.2198 9.93242 3.27857 -1.23537 -1.9379 0.18308
90 1 14.9382 11.5373 4.99156 -0.729127 0.0314872 -0.233958
91 1 0.0205682 13.1363 3.25186 -0.760782 -0.353911 0.255614
92 1 1.62678 14.8746 5.04282 -0.701231 -0.359005 0.630553
93 1 3.19864 13.3072 3.36049 -3.10123 -0.28763 -0.369629
94 1 4.94753 14.7218 4.92499 -1.64799 -0.021538 0.511663
95 1 6.56368 13.1246 3.2868 -1.29057 0.679502 0.915827
96 1 8.20241 14.7999 4.9077 -0.752699 0.906235 0.21252
97 1 9.91972 13.1492 3.21887 0.154259 -0.183045 0.508181
98 1 11.6143 14.8977 4.85311 -0.784938 -0.795903 0.257574
99 1 13.2826 13.2338 3.29535 -0.506164 -1.61246 0.875247
100 1 14.9085 14.9188 4.97371 -0.320895 -0.661076 -0.389343
101 1 0.0780837 0.0817552 6.60606 2.05612 0.718927 2.39519
102 1 1.58916 1.73535 8.32379 -0.602819 -0.770414 0.177166
103 1 3.2829 16.4968 6.50438 0.72288 -0.415834 0.452483
104 1 4.92287 1.66857 8.22305 -0.0478674 -0.203409 0.00259914
105 1 6.48514 0.0514711 6.52429 -1.09115 0.835112 -0.0824471
106 1 8.29837 1.4514 8.12373 -0.589359 -2.21645 0.695168
107 1 9.91746 0.0101256 6.47513 0.701376 -1.9098 -0.358414
108 1 11.5332 1.55254 8.22328 -0.0421673 -0.721864 -1.38206
109 1 13.2729 16.4454 6.57199 2.6033 0.535813 1.93893
110 1 14.793 1.64268 8.18744 1.56538 -1.54727 -0.602183
111 1 16.508 3.33305 6.72696 -0.246387 2.34526 0.430557
112 1 1.72002 4.96395 8.22451 0.412386 1.49057 0.529101
113 1 3.45244 3.36038 6.58505 1.15053 0.100284 -2.27884
114 1 5.00676 4.99087 8.24746 0.0742808 0.245885 -0.302164
115 1 6.67904 3.35035 6.51181 0.830301 -0.230004 0.678849
116 1 8.30252 4.92632 8.21333 -1.76666 -0.383138 -0.32137
117 1 9.87526 3.32025 6.49608 -0.956343 -0.677388 1.18437
118 1 11.5389 5.02965 8.22928 -2.38283 -1.17267 -0.831205
119 1 13.1175 3.32837 6.57881 1.1809 -0.561504 1.36185
120 1 14.8849 4.87413 8.25576 -0.947079 0.944128 -0.764089
121 1 16.4633 6.58766 6.66926 -1.05989 0.423294 -0.794706
122 1 1.63398 8.1319 8.35828 -0.294518 -0.234797 -0.802362
123 1 3.362 6.64136 6.57535 -0.931864 1.93506 -1.04638
124 1 4.99339 8.29819 8.36628 0.73016 -0.651782 -0.47866
125 1 6.6337 6.65478 6.63843 -1.34692 -0.0908606 0.718567
126 1 8.27423 8.33192 8.24339 0.0759574 -0.344583 -0.593469
127 1 9.88762 6.63709 6.48271 0.757684 -0.0526187 0.0444177
128 1 11.6088 8.21812 8.3507 1.87904 -0.927288 0.191786
129 1 13.2459 6.59746 6.63583 1.61581 -0.103156 -0.239452
130 1 14.81 8.25345 8.28006 -1.37883 1.64042 -0.917688
131 1 16.4728 9.85683 6.64067 -0.874415 -0.264727 -0.802475
132 1 1.57421 11.4514 8.3199 0.00439882 1.07072 -2.54686
133 1 3.33015 9.87594 6.5565 1.20198 -0.604914 -0.874246
134 1 4.81693 11.5907 8.38845 0.685168 0.134875 0.675856
135 1 6.52736 9.84142 6.51885 1.48198 -1.61717 0.852938
136 1 8.1588 11.4687 8.14764 0.211767 -1.71654 -0.84626
137 1 9.95228 9.87225 6.60587 1.78751 0.00713111 -1.8112
138 1 11.5882 11.6429 8.25935 -1.27264 -1.20644 0.571521
139 1 13.238 9.83591 6.50844 -1.29758 -1.21319 -0.337419
140 1 14.7632 11.5606 8.20149 -0.322139 2.55406 -0.514033
141 1 16.4764 13.1407 6.70996 -1.53466 0.208544 -0.675986
142 1 1.66678 14.8977 8.22563 0.116034 0.0444178 1.35625
143 1 3.24869 13.2424 6.58506 -0.939781 -0.46346 0.0060613
144 1 4.94159 14.8309 8.32933 1.21655 -0.339053 -0.769894
145 1 6.60411 13.2015 6.61012 -0.022756 2.0988 0.268893
146 1 8.30429 14.8677 8.1306 -0.104063 1.00853 -0.706036
147 1 9.87698 13.2039 6.53818 -1.99524 1.94938 -0.955057
148 1 11.5752 14.8677 8.31974 0.00654079 -0.41473 2.58878
149 1 13.2544 13.2634 6.58627 -0.287499 -0.967206 -0.136589
150 1 14.8751 14.963 8.29689 1.01729 1.67867 -0.670543
151 1 16.4856 16.4839 9.89601 2.03357 0.166002 1.3419
152 1 1.65022 1.6823 11.5911 -1.41625 -0.606049 1.54264
153 1 3.36371 0.0687514 9.82977 0.158291 -0.105707 1.61823
154 1 4.94309 1.68576 11.5283 0.370434 -1.46218 0.311771
155 1 6.7168 16.4801 10.0257 -0.508897 0.385515 0.6868
156 1 8.28983 1.68178 11.559 2.16161 2.58736 1.43779
157 1 9.92016 16.4598 9.93919 0.464446 1.01501 0.620833
158 1 11.5065 1.65544 11.5584 1.39736 2.84517 -1.10844
159 1 13.1892 0.0907755 9.94752 1.02273 0.351819 0.579624
160 1 14.7753 1.7723 11.6837 0.980772 0.254314 1.94809
161 1 16.4062 3.28466 10.0268 0.0213537 1.61702 1.0416
162 1 1.671 4.91645 11.6211 -0.935995 0.219805 1.1642
163 1 3.35692 3.35727 9.88691 -0.497881 -0.269691 -1.1215
164 1 5.10045 4.88621 11.5078 -0.72888 1.78421 -1.09875
165 1 6.6955 3.24268 9.89171 1.31384 0.966401 1.0924
166 1 8.34402 4.96827 11.54 -0.53685 -1.62521 -0.727534
167 1 9.93803 3.27441 9.85649 0.168597 1.44381 -2.37604
168 1 11.5277 4.89129 11.4727 -0.81719 -1.63432 -0.375049
169 1 13.1791 3.20924 9.96408 -2.19355 0.0114927 -1.42242
170 1 14.7878 4.88713 11.6259 -2.64245 1.2889 1.23882
171 1 16.4782 6.41161 9.97738 0.257556 0.752966 0.374328
172 1 1.62664 8.17709 11.56 0.902119 0.063183 -1.79332
173 1 3.43297 6.51056 9.88495 2.00408 0.889819 -1.42155
174 1 4.96697 8.31677 11.6338 0.16188 -1.40038 -1.02097
175 1 6.60846 6.71516 10.0176 -0.771363 0.424918 -2.69904
176 1 8.311 8.20678 11.5195 0.906751 1.91539 -0.279813
177 1 9.92351 6.66549 9.85417 0.568414 0.519161 0.366324
178 1 11.6528 8.07175 11.6256 1.78016 0.00360147 -0.286561
179 1 13.2855 6.56822 9.87727 0.931995 0.796352 -1.1941
180 1 14.9301 8.12398 11.6486 -0.892567 -0.384729 -0.540268
181 1 0.00881036 9.86242 9.99936 0.406936 0.991177 2.14132
182 1 1.61622 11.5237 11.6075 -0.881667 -0.191824 -0.0645455
183 1 3.36905 9.94509 9.93103 0.773312 0.74069 -0.784152
184 1 4.94311 11.6234 11.6556 0.913296 -0.67879 -0.594767
185 1 6.56316 9.99322 9.9821 1.29389 0.218184 -0.843105
186 1 8.29333 11.5811 11.5092 1.90823 0.0982499 -1.26469
187 1 9.91272 10.0083 9.94728 -1.55489 0.611981 0.0598146
188 1 11.5785 11.5605 11.577 -0.452938 0.149507 -1.7453
189 1 13.1784 9.88415 9.97477 1.01413 0.0445483 1.21594
190 1 14.8021 11.5375 11.4867 -1.48641 0.611562 2.10189
191 1 16.4827 13.2404 9.93654 -0.190379 0.394418 1.09384
192 1 1.63795 14.8428 11.632 1.09492 0.356514 0.644693
193 1 3.23171 13.2712 10.037 -1.01144 1.66948 0.918261
194 1 4.94936 14.8684 11.5334 1.24668 -0.409344 -0.979568
195 1 6.75889 13.3433 9.83914 1.08358 -0.28279 -0.688617
196 1 8.29962 14.9339 11.5938 -0.267868 1.15837 2.95825
197 1 9.92383 13.2034 9.84004 -1.1243 0.461023 0.940151
198 1 11.6861 14.7815 11.5498 -1.13998 0.103326 0.772474
199 1 13.2763 13.283 9.86602 1.47734 1.62885 1.4926
200 1 14.7418 14.966 11.6164 0.625753 1.04429 2.1147
201 1 16.4522 0.0865538 13.103 1.79827 2.88602 1.33542
202 1 1.642 1.70946 14.9144 1.10827 2.38291 1.5662
203 1 3.25018 0.0400939 13.2227 1.48727 0.697334 -0.320325
204 1 4.92612 1.64989 14.8745 0.415315 -0.186141 0.6297
205 1 6.61695 0.0705608 13.2151 -0.836468 0.867736 -0.241109
206 1 8.18351 1.63513 15.015 0.916381 -1.44885 -0.890882
207 1 9.94644 16.4778 13.2434 0.684357 2.51741 2.15122
208 1 11.5791 1.64956 15.0102 1.36598 0.00614752 -0.482576
209 1 13.1403 0.0733627 13.2894 -0.833307 0.986339 1.9097
210 1 14.8622 1.5867 14.9363 0.216268 0.960196 1.96198
211 1 16.5061 3.28266 13.2885 0.283477 -0.519314 0.755187
212 1 1.66223 4.94428 14.8399 -1.42431 -1.25442 1.1833
213 1 3.33758 3.36554 13.245 0.217874 -0.175013 2.58849
214 1 4.93328 4.94451 14.8727 -1.21638 -0.129941 -0.078144
215 1 6.63779 3.36487 13.3344 1.83961 0.17901 -0.633828
216 1 8.1927 4.91346 14.835 1.63257 0.334953 -0.947297
217 1 9.89353 3.16855 13.3135 0.70979 -0.0161482 -2.57981
218 1 11.5628 4.96986 14.9469 -1.56149 -0.514797 -0.179701
219 1 13.1702 3.25535 13.2482 -2.25018 0.955509 0.781961
220 1 14.884 4.98875 14.8319 -1.16862 0.852909 0.407043
221 1 16.488 6.50265 13.1876 -0.174342 -0.7513 -1.38174
222 1 1.61881 8.21993 14.8091 0.532548 -0.540945 -2.11443
223 1 3.29964 6.60516 13.1412 1.62728 -0.383333 -0.564812
224 1 5.01276 8.22403 14.8248 1.0723 -0.468459 -2.01645
225 1 6.61343 6.57037 13.1755 0.490965 2.03329 1.38428
226 1 8.21999 8.20991 14.8691 2.04369 -0.0424718 1.96461
227 1 9.92778 6.64721 13.2807 0.264079 -3.59729 0.456075
228 1 11.5811 8.30657 14.8772 1.4302 0.842473 1.64011
229 1 13.1626 6.56655 13.3167 -1.64879 -0.672603 0.741001
230 1 14.8692 8.19137 14.8793 0.430333 0.821567 -0.491986
231 1 16.4995 9.84089 13.2052 0.422989 -0.660243 0.298206
232 1 1.60019 11.6255 14.9259 -0.353431 -1.79636 -0.335259
233 1 3.4403 9.98899 13.29 0.687355 -0.602554 -2.09111
234 1 4.90077 11.7178 14.8957 -1.54801 0.776471 -0.448095
235 1 6.62911 10.0173 13.2202 -0.0932782 1.6491 0.665098
236 1 8.29209 11.5446 14.8714 -0.529387 0.144782 0.381241
237 1 9.86055 9.94399 13.2987 2.25414 2.40602 -0.0584
238 1 11.5112 11.6159 14.9076 0.104197 0.911789 -1.54569
239 1 13.1597 9.93562 13.2518 2.31325 0.0467633 -0.164457
240 1 14.8766 11.5975 14.881 1.45086 0.0594876 -2.26344
241 1 0.00600533 13.24 13.2368 0.734136 1.33523 0.657881
242 1 1.61765 14.908 14.802 0.315841 1.11839 1.27297
243 1 3.20921 13.2107 13.2156 -0.876389 -0.553138 -0.19772
244 1 4.99995 14.9192 14.9496 -0.221987 -0.393199 0.156109
245 1 6.61019 13.2735 13.2565 -0.612308 -1.07446 -0.41219
246 1 8.30494 14.9099 14.9202 -0.373068 -2.05319 -0.80128
247 1 10.0043 13.2617 13.2667 0.587275 -2.36559 0.0157881
248 1 11.6548 14.9012 15.0307 1.11387 -0.3453 1.52597
249 1 13.2049 13.1551 13.2254 1.24677 -0.116865 -0.814026
250 1 14.8874 15.0187 14.9194 1.17118 -0.473078 1.12976
