ITEM: TIMESTEP
400
ITEM: NUMBER OF ATOMS
250
ITEM: BOX BOUNDS pp pp pp
0.0000000000000000e+00 1.6520000000000000e+01
0.0000000000000000e+00 1.6520000000000000e+01
0.0000000000000000e+00 1.6520000000000000e+01
ITEM: ATOMS id type x y z vx vy vz
1 1 16.498 16.4562 0.0350358 -0.225293 0.0966702 0.438366
2 1 1.59791 1.78067 1.74381 -0.0903556 2.83768 1.66862
3 1 3.32335 0.101106 16.4823 -0.678919 0.19108 -1.43365
4 1 4.98315 1.68709 1.62577 -2.74503 -0.594579 1.4114
5 1 6.70247 0.0333558 16.4638 0.281112 1.34112 0.410816
6 1 8.18404 1.66078 1.64658 0.909657 0.864018 0.279611
7 1 9.95764 16.4957 16.4665 1.86255 -0.722519 -0.41764
8 1 11.6108 1.612 1.59018 -0.288087 0.365055 -1.97138
9 1 13.2405 0.0871062 16.4833 1.28108 -0.557209 -1.40964
10 1 14.9045 1.68081 1.70013 0.86115 -1.19072 -1.04622
11 1 16.4547 3.37062 0.13629 -0.216388 1.21076 2.30042
12 1 1.69215 4.97834 1.61869 -0.654143 0.29293 -0.712601
13 1 3.19419 3.2942 16.472 -0.0280896 -0.335489 -2.06875
14 1 4.91844 4.88138 1.68813 -0.815312 -2.29015 -0.547887
15 1 6.64223 3.31139 16.5189 0.0774793 0.221543 1.13165
16 1 8.29676 4.99123 1.75045 -0.643339 1.73511 0.597053
17 1 9.95033 3.29757 16.4872 0.635856 0.440117 -1.82671
18 1 11.47 5.00872 1.55846 -0.705643 1.34781 -0.535609
19 1 13.2066 3.27623 0.0326052 2.32582 -0.262006 -0.730766
20 1 14.8398 4.88654 1.68389 -0.978012 -0.975548 0.0240437
21 1 16.4258 6.60302 0.0419237 -1.26003 0.116517 0.497272
22 1 1.62343 8.24342 1.67895 -1.16752 -0.296433 1.58164
23 1 3.33645 6.57402 16.46 -1.30667 -0.296229 0.314456
24 1 5.02273 8.25264 1.69137 0.463839 -0.110135 0.742254
25 1 6.65186 6.53018 0.0347723 0.462443 -1.64708 0.640424
26 1 8.3576 8.24501 1.66591 0.362106 -1.0722 0.523712
27 1 9.91379 6.64478 0.0396206 0.772057 1.73729 -0.911338
28 1 11.5055 8.2262 1.70498 0.914915 -1.57234 1.70044
29 1 13.1881 6.53736 0.0746406 0.235084 -0.160622 -0.0922632
30 1 14.8847 8.24036 1.64713 -0.519673 -0.339823 -1.20297
31 1 16.5191 9.88794 0.0341335 1.10466 1.40253 1.46514
32 1 1.6257 11.5076 1.59651 0.602997 0.355201 -1.31507
33 1 3.32726 9.83869 0.0355097 -0.0678724 1.22483 0.548974
34 1 4.95805 11.5772 1.67891 -0.188542 -0.856665 1.60917
35 1 6.66555 9.84789 16.5018 2.33885 -0.346451 -0.805192
36 1 8.24632 11.5967 1.62486 1.58173 -0.699633 -0.813189
37 1 9.94869 9.87905 0.0313122 -0.861972 -1.86924 1.71817
38 1 11.5809 11.5047 1.64065 0.454458 0.280425 -1.37199
39 1 13.2093 9.84961 16.4091 0.870022 0.423967 -0.716165
40 1 14.8133 11.5648 1.53126 -0.881874 0.987092 -2.04288
41 1 0.0164904 13.1857 0.0444846 -0.803106 0.187457 0.250878
42 1 1.69685 14.8644 1.61426 -0.670829 1.27911 -3.86263
43 1 3.35234 13.2306 0.0886435 2.0379 1.45966 -0.48236
44 1 4.98871 14.9333 1.54055 -0.529391 1.67778 -0.550279
45 1 6.62571 13.1942 16.4328 2.92592 -0.77042 0.399746
46 1 8.31064 14.8761 1.57694 0.332428 0.443946 -1.04429
47 1 9.86438 13.2183 16.4297 -1.72876 2.82484 0.0363906
48 1 11.4847 14.9596 1.67331 -0.802245 0.316433 0.339983
49 1 13.2242 13.1552 16.5063 1.20679 2.51506 -0.511796
50 1 14.7599 14.8287 1.67598 -1.37246 0.728287 -1.2502
51 1 0.00870796 16.4496 3.20016 2.27785 0.0153359 -3.92167
52 1 1.63195 1.71839 4.94292 -0.829803 0.467715 -3.08264
53 1 3.31489 16.4712 3.22544 0.541315 -0.149327 -1.45236
54 1 4.91307 1.69871 4.93054 1.35419 0.269557 -2.12414
55 1 6.64772 0.0457992 3.3205 -1.65444 1.96446 0.259185
56 1 8.34167 1.64797 4.97585 0.0573755 0.742561 2.24195
57 1 9.88564 0.0297978 3.31785 -0.152165 3.8466 0.0681962
58 1 11.7028 1.5003 4.93619 1.3641 -0.250687 -0.721217
59 1 13.1626 16.4479 3.27194 0.403724 1.07792 -0.367674
60 1 14.9706 1.57257 4.98092 0.87781 -0.122927 -1.92479
61 1 16.4724 3.24653 3.3054 -0.269655 -0.0839548 0.2175
62 1 1.6565 4.93193 4.85404 -0.878821 0.211712 -0.122158
63 1 3.3039 3.29513 3.29515 -1.8947 -0.238838 1.56856
64 1 4.92176 4.86536 4.93299 -0.073069 -0.0672877 -0.476992
65 1 6.65822 3.26951 3.36201 0.31971 -0.278086 0.216025
66 1 8.16732 4.85731 4.90655 -1.13778 -0.561194 -0.220794
67 1 9.88567 3.31217 3.23837 -0.113277 0.298049 -0.384345
68 1 11.5461 4.90134 4.98092 -1.11444 -0.833103 -0.716423
69 1 13.2088 3.2341 3.26294 -0.410332 0.466753 -1.06728
70 1 14.8438 4.98462 4.86557 -1.1755 -0.677736 -1.5533
71 1 16.4683 6.64834 3.36077 -0.630555 -0.858806 -0.643457
72 1 1.59433 8.37542 4.93738 -1.70986 -0.203539 -2.38206
73 1 3.20581 6.62555 3.24238 0.558937 -1.117 -0.371845
74 1 5.02225 8.24527 4.86848 1.36754 -0.258057 -1.50777
75 1 6.57005 6.62683 3.30025 -1.14541 -3.40569 1.296
76 1 8.36029 8.24597 4.96032 0.160419 0.517361 0.430143
77 1 9.87591 6.60506 3.29797 -0.18709 1.11021 0.175055
78 1 11.5326 8.24281 5.01454 -0.114563 1.22459 1.43442
79 1 13.206 6.57454 3.44647 -1.11129 1.35514 0.455631
80 1 14.8401 8.29394 5.00118 0.0789502 -1.02873 -0.703388
81 1 16.4815 10.0195 3.17078 -1.28574 1.59663 0.817558
82 1 1.72059 11.5842 4.88654 -0.802844 -0.873614 0.59504
83 1 3.26556 9.88045 3.30543 0.720443 3.00436 0.0697999
84 1 5.02665 11.6055 4.92405 1.06343 -1.14367 -0.660072
85 1 6.64905 9.90218 3.35735 2.17919 -1.47117 0.578249
86 1 8.23171 11.5757 4.95278 1.01931 0.84024 0.25619
87 1 9.86976 9.96863 3.34944 1.82988 -1.98469 1.57589
88 1 11.5307 11.5748 4.88264 0.55491 0.282977 -1.81844
89 1 13.1559 9.81215 3.37771 0.386782 -0.247474 -0.0779036
90 1 14.8105 11.5115 4.91638 2.02411 -0.64247 -0.263161
91 1 16.4896 13.1716 3.26123 0.745718 -0.556093 -0.465364
92 1 1.68782 14.8113 4.94537 0.73281 0.889855 0.0511014
93 1 3.31325 13.2635 3.27116 -0.0567115 0.55737 0.156486
94 1 4.98046 14.9061 4.93332 0.253905 -1.18708 -1.02818
95 1 6.6252 13.2426 3.30743 3.73393 0.151816 -1.31689
96 1 8.19691 14.8892 5.07261 0.985689 0.723228 1.40875
97 1 9.85179 13.3413 3.29178 -0.428376 1.86595 -1.98614
98 1 11.5554 14.9217 4.94547 0.832335 -0.72964 0.986642
99 1 13.1981 13.2563 3.25752 0.800133 0.359732 -0.416251
100 1 14.8171 14.8476 4.98741 -0.110739 0.728293 -0.757854
101 1 0.0133337 16.4993 6.63898 -0.438383 0.451251 -2.4881
102 1 1.65692 1.66408 8.29685 1.24485 -0.916685 -1.61167
103 1 3.34465 0.051221 6.58585 1.74322 1.54196 -2.0595
104 1 4.88725 1.75505 8.19586 0.45468 1.48506 -0.712702
105 1 6.68059 0.0321107 6.62432 -1.01811 0.47316 -0.548236
106 1 8.29254 1.76945 8.25206 -0.398353 1.3961 0.1728
107 1 9.92473 0.0588027 6.6603 1.84647 0.0894277 1.36719
108 1 11.6154 1.72765 8.37293 -0.0283456 1.89131 1.1957
109 1 13.1817 0.0155269 6.67725 0.00334449 0.41769 -1.45494
110 1 14.9117 1.685 8.2744 -1.51085 2.60755 0.519585
111 1 16.4654 3.26405 6.62351 -0.720292 -0.493622 -0.949325
112 1 1.64055 4.94611 8.30881 -0.933687 -0.272919 -1.14695
113 1 3.31273 3.38337 6.526 -0.320365 -0.93949 -1.83841
114 1 4.87826 4.83851 8.31757 -1.14835 -0.646128 -0.465402
115 1 6.54538 3.31744 6.63323 0.291458 -0.162431 -0.295032
116 1 8.27888 4.90954 8.23566 1.23826 0.133904 0.585406
117 1 10.045 3.32878 6.64242 1.52798 1.17403 -0.380208
118 1 11.4984 4.88037 8.37338 0.765093 -1.28365 0.400944
119 1 13.262 3.35529 6.55098 -0.00961036 -0.352411 -0.796469
120 1 14.8295 4.87473 8.23874 -0.838161 -1.03102 -0.801498
121 1 0.0666279 6.5635 6.61238 -0.532497 0.223077 -0.149315
122 1 1.65418 8.21759 8.1723 -0.751889 0.802996 -0.289719
123 1 3.20084 6.5358 6.51934 0.331651 -2.25778 -0.507492
124 1 4.95579 8.26901 8.15642 0.626586 -0.142104 -0.225235
125 1 6.62213 6.48246 6.60307 0.54548 -1.2044 -0.689672
126 1 8.21522 8.22517 8.25745 1.44319 -1.57704 0.593379
127 1 9.95503 6.5749 6.65954 -0.538617 -0.712513 0.753778
128 1 11.5811 8.30445 8.30162 -1.1435 0.0315119 0.428183
129 1 13.2267 6.57622 6.60673 -1.15889 -0.279681 0.246768
130 1 14.8484 8.32019 8.22193 0.159198 0.590808 0.992434
131 1 0.030586 10.0257 6.61085 2.15741 0.735406 -0.307182
132 1 1.67804 11.619 8.23319 0.253253 -1.14757 -0.17063
133 1 3.41035 9.95918 6.60196 1.94349 -1.02087 -0.946257
134 1 4.93567 11.5422 8.19971 -1.50738 0.860074 0.465822
135 1 6.64718 9.96266 6.59745 0.275162 -0.490428 0.815655
136 1 8.29034 11.5721 8.27786 -0.602454 1.07891 -1.48045
137 1 9.90702 9.87756 6.56118 -0.626453 -1.00184 -2.0557
138 1 11.5042 11.5897 8.30279 -1.3709 0.783148 -1.35279
139 1 13.172 9.98668 6.57044 0.503114 1.04851 -1.74342
140 1 14.7865 11.5082 8.24904 1.51822 -1.88253 -0.147315
141 1 16.5111 13.2019 6.61125 1.05862 1.36957 1.26816
142 1 1.68757 14.8026 8.21247 0.389391 -0.960836 0.637595
143 1 3.30856 13.2568 6.47845 0.5963 -1.06393 0.967523
144 1 4.93891 14.8734 8.24118 -0.438986 -0.0505732 -0.771542
145 1 6.67736 13.218 6.65656 -0.532089 0.272761 -0.110011
146 1 8.29778 14.8717 8.31132 1.23508 -0.961902 0.482232
147 1 9.93687 13.2023 6.6063 0.218898 0.0810155 1.94892
148 1 11.4843 14.9238 8.35826 0.273071 0.866907 1.6619
149 1 13.1585 13.2162 6.62135 -0.66775 -0.0560482 -0.643978
150 1 14.9363 14.8757 8.22777 -1.10612 0.726868 -1.00598
151 1 0.0901936 0.0551238 9.96473 -1.41333 -0.722886 -0.377189
152 1 1.60155 1.5341 11.5862 1.69434 0.244999 -1.33036
153 1 3.26409 16.4776 9.82331 1.27514 1.31444 -0.157377
154 1 4.93438 1.65286 11.6519 -0.230119 -2.05419 -0.312853
155 1 6.55382 0.00453348 9.98448 -0.852786 0.582394 0.988567
156 1 8.24131 1.55314 11.57 -1.90772 0.688467 2.25586
157 1 9.90243 16.5136 9.92984 0.550036 -0.0152985 0.999611
158 1 11.5749 1.68868 11.5766 -0.223491 -0.860073 0.387738
159 1 13.2546 0.0117265 9.89476 -0.585153 0.16282 0.22423
160 1 14.8747 1.66533 11.5533 0.621834 -1.00868 -0.666773
161 1 0.00375137 3.3502 9.99864 1.05006 0.330472 0.237227
162 1 1.66506 5.08244 11.6761 0.211506 -2.40782 0.0256607
163 1 3.32211 3.31151 10.0058 -0.583316 0.115368 -0.365544
164 1 4.85133 4.96351 11.5901 -0.77391 0.0700807 0.581599
165 1 6.58684 3.38834 9.89198 -0.122249 -0.575533 1.96387
166 1 8.1999 4.99862 11.6483 -1.75936 -0.560863 1.80128
167 1 9.93912 3.35323 9.97009 -0.258759 2.15441 0.208634
168 1 11.5359 4.99963 11.631 1.29248 0.36228 0.252785
169 1 13.3089 3.29509 9.88869 -0.167351 0.545614 2.78461
170 1 14.8191 5.03513 11.5793 0.155723 -0.13678 -0.41778
171 1 0.0218292 6.62973 9.85968 -0.164159 -0.835018 -0.562987
172 1 1.65592 8.23746 11.5893 -0.691778 -0.406482 2.57554
173 1 3.20427 6.65629 9.81509 -0.515917 0.223479 1.50729
174 1 4.93221 8.19899 11.5533 0.957122 -1.56114 -1.07995
175 1 6.59297 6.59374 9.918 1.95973 -2.11055 -0.123893
176 1 8.28898 8.22204 11.513 0.476611 1.12096 0.750622
177 1 9.93103 6.47255 9.99396 -0.12395 0.15524 2.37586
178 1 11.5916 8.27255 11.5618 0.164822 -0.189449 -1.06148
179 1 13.2453 6.60394 9.83186 -0.028554 1.10453 -0.270868
180 1 14.8855 8.25576 11.4955 1.49949 0.0537555 0.108657
181 1 0.0876549 9.9172 9.90963 0.803233 1.0776 0.227264
182 1 1.6479 11.4987 11.5481 -0.0567004 -0.306873 1.29832
183 1 3.32929 9.92143 9.83556 -0.60803 -0.395094 0.209273
184 1 4.91866 11.4746 11.54 -3.27786 1.34902 0.361673
185 1 6.63042 9.86348 9.86554 -0.540926 -1.58206 1.06568
186 1 8.25703 11.5064 11.4906 -1.0089 -0.432675 0.888304
187 1 9.93011 9.929 9.86615 -0.777597 -1.06821 -0.267644
188 1 11.513 11.5485 11.5133 0.80627 0.633139 -2.29169
189 1 13.2991 9.98974 9.88989 -0.16888 -0.867672 0.00708275
190 1 14.9928 11.5131 11.5774 -1.24064 -2.15811 0.0636251
191 1 16.4816 13.2985 9.92356 -0.376379 -1.01553 -0.362391
192 1 1.65483 14.8825 11.6217 -0.78344 -1.43236 0.845864
193 1 3.25809 13.1789 9.91619 0.0152438 -0.488908 -0.656287
194 1 4.93932 14.8448 11.5587 -1.53487 0.809869 -1.13815
195 1 6.51291 13.1931 9.95665 -2.57899 0.827501 1.78582
196 1 8.21233 14.8794 11.6003 0.861819 -0.311018 0.799389
197 1 9.89081 13.2298 9.93686 -1.27536 -0.859423 -0.283333
198 1 11.6547 14.8873 11.6069 1.11147 -2.65979 -0.595653
199 1 13.2559 13.229 9.83874 -0.442638 0.255084 -1.20335
200 1 14.9205 14.9338 11.5631 -0.874204 -1.13271 -0.836594
201 1 0.0766268 16.4377 13.2726 0.247817 -0.358203 0.532393
202 1 1.62438 1.61968 14.8907 0.36415 0.555639 0.351336
203 1 3.39376 0.0318659 13.2366 -0.24006 -0.419727 -0.068332
204 1 4.97562 1.68361 14.984 -0.149897 0.619166 -0.419602
205 1 6.58026 0.0132771 13.1781 -0.103131 0.707423 0.668391
206 1 8.28005 1.72509 14.8701 0.59108 0.167085 0.0943658
207 1 9.98109 16.5094 13.1831 -0.371588 0.347588 0.82312
208 1 11.6458 1.6323 14.7036 0.114662 -0.00598071 -1.4214
209 1 13.2746 16.4617 13.2154 -0.792183 -1.43019 1.22013
210 1 14.9328 1.6857 14.8727 1.5482 -1.52906 -1.10798
211 1 0.0186628 3.38366 13.314 0.0892698 0.280232 0.198614
212 1 1.58649 4.88883 14.8785 -1.03835 -0.675342 1.82288
213 1 3.2478 3.28569 13.2335 -0.750114 -0.546774 0.663816
214 1 4.97198 4.90924 14.8272 0.827014 1.64296 0.67444
215 1 6.64414 3.37139 13.2663 1.23419 0.219301 0.890159
216 1 8.28767 4.97704 14.8043 -0.814717 -0.700821 0.73162
217 1 9.95619 3.34902 13.1592 0.202045 -0.480835 0.0102787
218 1 11.5335 4.98766 14.8144 0.208993 0.494718 -1.90571
219 1 13.2763 3.25173 13.2457 0.691513 2.10347 -0.758396
220 1 14.8348 4.99457 14.8391 0.0782678 0.207287 0.952486
221 1 16.5119 6.65514 13.18 -0.272488 2.1177 1.6271
222 1 1.63566 8.29449 15.0158 -0.506975 2.4251 3.55248
223 1 3.19355 6.70424 13.2935 -2.71641 -0.850017 2.1834
224 1 4.93857 8.26536 14.9102 -0.902402 -1.95253 0.803843
225 1 6.59747 6.6138 13.2481 -0.372072 -0.043512 -0.0590398
226 1 8.28214 8.22386 14.8933 1.45127 -1.50647 -1.06847
227 1 9.92923 6.63963 13.2019 -0.722465 -0.817345 -0.176012
228 1 11.5999 8.20642 14.8536 0.990692 -2.58062 0.601779
229 1 13.2279 6.64776 13.2478 2.47935 -0.433262 1.1034
230 1 14.9209 8.25448 14.8847 0.0250449 1.45664 2.09641
231 1 16.4901 9.81373 13.1886 0.293243 1.28438 3.72476
232 1 1.69858 11.6119 14.8978 0.0893471 -0.341835 2.02265
233 1 3.36897 9.92118 13.2561 -0.377747 0.930124 0.601931
234 1 5.02533 11.5127 14.9004 -0.325821 0.537524 0.122612
235 1 6.62333 9.87918 13.2443 -1.96066 -1.5496 0.0650664
236 1 8.20988 11.5316 14.8304 -1.12837 -2.08531 -0.181549
237 1 9.85182 9.97649 13.2669 1.2165 -0.0718988 -0.682832
238 1 11.4414 11.5313 14.8929 -1.38807 -1.64546 2.26464
239 1 13.3322 9.86337 13.1912 -0.259501 -1.06794 1.82453
240 1 14.8347 11.5748 14.8021 -1.36081 -0.555872 0.147896
241 1 16.4583 13.2119 13.2595 -0.503569 -2.40397 -0.069935
242 1 1.61757 14.836 14.8383 -1.25363 -1.37547 -0.492052
243 1 3.32617 13.2055 13.2436 -0.0510824 0.199857 1.99366
244 1 4.96983 14.7926 14.942 0.350827 0.397393 -0.0872553
245 1 6.58876 13.1913 13.295 0.264229 1.35948 0.463432
246 1 8.24987 14.9468 14.8294 -0.460663 2.20618 -0.587084
247 1 9.85954 13.2907 13.2586 -2.08767 -1.16208 0.0146123
248 1 11.5884 14.865 14.8838 0.417853 1.55688 1.16922
249 1 13.0725 13.2281 13.1905 -1.89915 1.51073 0.413921
250 1 14.8896 14.8857 14.9331 0.564296 -0.524019 -1.20531
