ITEM: TIMESTEP
380
ITEM: NUMBER OF ATOMS
250
ITEM: BOX BOUNDS pp pp pp
0.0000000000000000e+00 1.6520000000000000e+01
0.0000000000000000e+00 1.6520000000000000e+01
0.0000000000000000e+00 1.6520000000000000e+01
ITEM: ATOMS id type x y z vx vy vz
1 1 0.00560209 16.516 0.0417796 0.408053 -0.629919 -0.460162
2 1 1.6546 1.42091 1.57901 -0.582407 2.2234 0.0394017
3 1 3.33469 16.4544 0.136164 -0.0995791 2.89154 -1.43294
4 1 5.10968 1.65634 1.60044 0.800894 1.53454 -1.03629
5 1 6.58114 16.4177 16.4751 1.78645 1.19226 -0.548476
6 1 8.28106 1.59323 1.62634 -1.86076 0.485517 -0.271304
7 1 9.8151 0.0442764 16.5082 0.407216 0.797652 -0.636507
8 1 11.5124 1.61321 1.80864 1.65486 0.233448 -1.85346
9 1 13.1543 16.4851 0.0856306 0.296663 2.61986 -0.948874
10 1 14.8071 1.64624 1.71546 0.368486 1.34577 0.402545
11 1 0.0294106 3.24538 16.3825 -1.53658 0.476054 1.42793
12 1 1.63445 4.94947 1.69886 1.35188 0.420402 -0.621069
13 1 3.34623 3.32086 0.123525 -2.63262 0.0544722 -0.573387
14 1 5.06019 5.1281 1.65731 -1.51496 -1.58937 0.785271
15 1 6.63467 3.3617 16.4432 0.315372 -0.609525 0.512817
16 1 8.23396 4.84175 1.58132 1.45779 0.274192 1.52042
17 1 9.85137 3.23896 0.0808531 0.958926 0.532414 -0.0991633
18 1 11.6373 4.83957 1.78987 -1.8182 0.915288 -3.15803
19 1 13.0981 3.32635 0.0389041 -1.14839 -0.225626 -0.0154526
20 1 14.9139 5.04625 1.68284 -1.00674 -0.927064 0.339096
21 1 0.0840584 6.56241 16.4752 -1.64018 0.478133 1.55289
22 1 1.68111 8.2422 1.50267 0.371582 0.427117 1.54035
23 1 3.37273 6.60041 16.4968 0.8995 -0.361138 -0.500172
24 1 4.90392 8.25549 1.59832 1.66553 -0.0017093 0.702948
25 1 6.58605 6.68421 16.4748 0.364891 -1.05261 0.979095
26 1 8.21231 8.36617 1.61753 1.6973 -0.92923 0.648112
27 1 9.86148 6.51903 0.0232651 -0.146286 -0.154342 0.60735
28 1 11.5281 8.33628 1.5731 -0.501911 0.0313843 0.551663
29 1 13.2016 6.65408 16.5106 -0.285609 -1.78291 1.69952
30 1 14.8254 8.25349 1.72041 0.894853 0.217128 0.567484
31 1 16.4476 9.81405 16.3451 -0.288676 0.265932 2.01338
32 1 1.6556 11.5326 1.69849 -0.3662 0.00218746 -0.420514
33 1 3.27702 9.87385 16.4575 1.62191 -1.7902 2.06086
34 1 4.93432 11.57 1.56956 1.84062 0.774169 0.0199569
35 1 6.50506 9.97143 0.086686 0.0925954 -2.17342 -0.0429669
36 1 8.13799 11.649 1.67988 0.433346 -0.364314 -0.0339626
37 1 9.91158 10.0517 16.4164 1.67792 -1.25939 0.278213
38 1 11.5158 11.5606 1.73872 0.428933 -0.941686 -0.198192
39 1 13.1982 9.87569 0.0493267 -1.18178 -1.22524 -1.46992
40 1 14.8769 11.456 1.77372 -0.645336 0.719587 -1.74459
41 1 0.0275209 13.1914 16.4906 0.636242 -0.156509 0.653904
42 1 1.63363 14.8192 1.86783 1.78087 -0.60265 -0.362301
43 1 3.15291 13.1033 16.4926 1.25627 0.510305 2.46464
44 1 4.97758 14.8149 1.71577 1.82005 0.00478116 -2.31112
45 1 6.48736 13.2382 0.016578 -0.447145 0.0530389 -1.3445
46 1 8.21411 14.7851 1.67712 1.00743 1.88536 -0.239687
47 1 10.0165 13.0798 0.0612808 -0.707564 -0.806362 -2.38301
48 1 11.6076 14.757 1.5566 -1.18263 3.1093 0.942989
49 1 13.1285 13.0685 0.0206176 -0.730153 -1.03058 -0.373429
50 1 14.9545 14.8203 1.67739 -1.4951 -0.511803 0.996565
51 1 16.392 0.00063427 3.58973 -0.149009 -2.06281 -2.19943
52 1 1.70086 1.59096 5.13668 -0.159623 1.06857 0.0353705
53 1 3.29559 0.0765034 3.41876 -0.196229 -1.70114 -1.9437
54 1 4.899 1.59949 5.08586 -1.24936 0.816183 -0.688674
55 1 6.6456 16.4093 3.2802 2.31104 0.0208738 0.421191
56 1 8.23284 1.62548 4.83862 2.4938 -0.147328 0.185725
57 1 9.89399 16.3152 3.26622 -0.345048 0.114898 1.03109
58 1 11.4594 1.70852 5.02136 2.42231 -2.37268 -0.890838
59 1 13.2505 16.465 3.36044 -1.30464 -1.1664 -1.52182
60 1 14.7838 1.63728 5.1029 2.06801 -1.42358 -0.521277
61 1 0.0450106 3.31384 3.34874 -1.50637 -0.362411 -0.609235
62 1 1.68054 4.93611 4.96696 -0.393138 -0.277874 -2.03382
63 1 3.3967 3.2761 3.20422 0.335678 0.529765 -0.590403
64 1 4.97562 5.04391 4.95051 -0.881503 -2.49954 -0.0797828
65 1 6.55636 3.31143 3.27526 0.939114 -0.818273 0.781446
66 1 8.37038 5.00457 5.01188 -1.43386 -1.67451 -1.02222
67 1 9.96539 3.22399 3.37785 -0.397197 0.698131 -2.0089
68 1 11.6285 4.96983 4.99079 -0.492817 -0.398695 0.0886452
69 1 13.2274 3.28096 3.44521 -0.630154 -1.30561 -2.14322
70 1 14.9855 4.93365 5.10396 -0.884271 1.34732 -1.96019
71 1 0.0666507 6.66647 3.3322 -1.60209 0.829654 1.18156
72 1 1.69774 8.28247 5.09169 0.524074 1.91616 0.229108
73 1 3.32354 6.67269 3.35124 -2.52278 0.611944 -1.36872
74 1 4.8646 8.27978 5.07504 0.91794 -1.04772 -1.24123
75 1 6.70565 6.75717 3.26178 -0.83782 1.36658 -0.653327
76 1 8.21857 8.23617 4.95005 1.79894 -1.21807 -0.0151482
77 1 9.95088 6.53 3.32477 -0.794017 -0.21065 0.392661
78 1 11.5484 8.18639 4.87172 -0.252052 -0.90911 1.18728
79 1 13.2407 6.55822 3.22541 0.172645 -1.2513 2.68417
80 1 14.882 8.3286 4.98515 -0.298247 0.883499 1.46266
81 1 0.0375521 9.77702 3.3483 -0.375408 2.39743 -3.68949
82 1 1.64304 11.5912 4.89948 2.34267 0.906252 -0.889843
83 1 3.29645 9.7844 3.27371 -0.689273 -1.739 0.338332
84 1 4.85709 11.6056 5.00005 1.98294 1.60452 -0.974142
85 1 6.45575 10.0045 3.2496 1.33294 -0.0610189 0.696666
86 1 8.20344 11.5531 4.96067 -0.015087 -0.0188966 -0.580999
87 1 9.80449 9.99616 3.21358 -0.653028 2.19086 0.220587
88 1 11.5127 11.5396 5.0789 -0.395425 1.14865 -1.68738
89 1 13.1566 9.92344 3.27584 -0.213155 -1.30324 1.1723
90 1 14.7176 11.6093 4.9541 -0.470126 -0.258962 -0.696188
91 1 16.4433 13.2012 3.34536 -0.0161301 0.725883 -1.06579
92 1 1.55851 14.8695 4.93353 0.902 -1.4233 -0.678988
93 1 3.34675 13.1605 3.28547 0.0312552 1.14134 -0.860889
94 1 4.95265 14.996 5.03689 0.666419 0.0150576 -1.00546
95 1 6.3987 13.2453 3.35398 -0.023807 0.426675 0.0245838
96 1 8.22616 14.8065 4.86105 -1.08769 1.11295 1.7443
97 1 9.90569 13.0696 3.3918 -0.321162 2.67231 0.658347
98 1 11.5076 14.8565 4.98571 -0.513194 1.88985 -1.43054
99 1 13.1044 13.1448 3.34115 0.371179 1.15221 -1.0479
100 1 14.8417 14.8087 5.02235 0.389682 -0.162552 -0.0582357
101 1 0.0625697 16.4769 6.70922 0.122153 -0.0495165 1.42607
102 1 1.6229 1.75499 8.37719 -0.812908 0.077006 -0.113008
103 1 3.19482 16.4393 6.71873 0.258424 0.487528 -0.571116
104 1 4.92582 1.53034 8.37452 -0.932838 1.74103 -2.04863
105 1 6.59978 0.0335897 6.65956 2.5841 -0.244401 0.760748
106 1 8.24931 1.56791 8.26709 1.28185 1.85005 0.0454641
107 1 9.82208 16.4942 6.54084 0.086587 1.86867 1.07023
108 1 11.5621 1.5229 8.1665 1.08007 1.37429 2.32644
109 1 13.2516 16.4413 6.70289 -1.09908 1.31835 1.73374
110 1 14.9585 1.51015 8.27111 1.08736 -0.448709 -0.719515
111 1 0.0960303 3.3668 6.66593 -1.59281 -0.93024 -0.0320509
112 1 1.67634 4.94066 8.32887 0.130972 -0.582169 0.613706
113 1 3.26237 3.33001 6.7673 0.0677883 1.72705 -2.11437
114 1 4.99311 5.07451 8.24475 -1.13075 -2.45051 1.91751
115 1 6.61174 3.28614 6.59291 -0.953983 0.578564 1.09904
116 1 8.19596 4.97662 8.22718 -0.0281557 -1.38125 -0.229062
117 1 9.80967 3.2111 6.5958 2.63452 0.394281 0.819831
118 1 11.5968 5.01712 8.17826 -1.95838 -0.463832 2.94791
119 1 13.2244 3.26209 6.6793 0.603174 1.67046 -1.88975
120 1 14.9762 5.06264 8.30009 -1.26361 -1.55367 -0.353723
121 1 0.0107193 6.61305 6.59496 0.837744 -1.43611 0.0595928
122 1 1.65887 8.324 8.24384 0.857293 -2.37216 -1.30703
123 1 3.34166 6.71249 6.61582 -2.31652 0.2067 -1.80199
124 1 4.921 8.26616 8.23018 0.0378628 -1.20619 -1.20275
125 1 6.55206 6.70405 6.60122 0.171955 -2.58674 1.04055
126 1 8.22416 8.30583 8.19434 -1.65915 -0.0816614 0.350087
127 1 9.90862 6.63185 6.58121 1.31936 -0.59798 0.661821
128 1 11.6136 8.21617 8.25736 0.710088 1.45635 0.244164
129 1 13.272 6.61941 6.61712 0.499601 -0.31212 0.0792506
130 1 14.882 8.21877 8.2088 -0.481852 0.977633 -1.41768
131 1 16.3954 9.91828 6.61049 0.408765 0.772731 0.237611
132 1 1.62202 11.6431 8.24079 0.75962 0.607773 -0.0797169
133 1 3.15217 10.0119 6.60595 1.97172 -0.445673 0.0903742
134 1 5.04775 11.586 8.23262 0.193468 -1.43026 -0.880483
135 1 6.59194 9.89616 6.53134 0.917361 1.1967 0.271286
136 1 8.33076 11.5323 8.29499 -0.611771 -0.609808 1.62848
137 1 9.94629 9.96527 6.74578 0.013799 -0.0151235 -0.473453
138 1 11.6457 11.5791 8.3321 -0.879265 -0.814455 0.494025
139 1 13.1541 9.84569 6.69782 -0.463002 1.06471 -0.0627959
140 1 14.8692 11.7269 8.26503 -2.57152 -1.18405 -0.821528
141 1 16.4499 13.112 6.50476 -0.415296 -0.0990442 0.104761
142 1 1.63231 14.8656 8.25058 0.505806 0.522696 -2.11528
143 1 3.31726 13.2652 6.61011 -0.18016 0.865121 -3.35812
144 1 4.99189 14.8506 8.31133 -0.144284 0.653566 -0.552725
145 1 6.60956 13.2189 6.63067 1.62431 -0.279519 1.05948
146 1 8.19546 14.9083 8.23789 -0.360403 0.858009 1.31477
147 1 9.87072 13.2381 6.5449 1.24972 -0.479948 -1.53237
148 1 11.5665 14.8041 8.16071 -1.28491 1.12355 1.26946
149 1 13.1962 13.2524 6.64254 0.103981 -0.331303 0.202172
150 1 14.8999 14.8192 8.34752 1.59998 0.425837 -1.0916
151 1 0.0383044 16.5033 9.92407 1.90433 1.68474 0.226076
152 1 1.64034 1.74115 11.7133 -2.33943 -3.2714 -0.124855
153 1 3.30306 16.4911 9.98452 -2.12529 -1.84018 -2.85952
154 1 4.98607 1.74967 11.5354 -0.534074 1.22975 2.42016
155 1 6.6067 0.00318317 9.83125 -0.206285 -0.384705 0.588408
156 1 8.31951 1.69203 11.4671 1.00488 -2.5127 -0.982185
157 1 9.91358 16.5198 9.85455 -1.06017 0.363519 0.628743
158 1 11.6285 1.68312 11.5163 -0.496753 1.06954 0.61756
159 1 13.2835 16.5047 9.91712 0.371971 0.263788 -0.696367
160 1 14.882 1.72613 11.6182 -0.457368 0.0793647 0.111974
161 1 16.4904 3.32342 9.95519 -0.203095 0.114989 0.641412
162 1 1.66639 5.04162 11.4952 -0.58674 3.08281 2.90535
163 1 3.25886 3.29013 9.96363 0.993586 -0.188134 1.2092
164 1 5.03009 5.00024 11.5422 -2.64591 -0.338623 0.803604
165 1 6.62193 3.28026 9.87673 -0.34695 2.17366 -1.15389
166 1 8.3408 4.98127 11.4149 -0.812439 0.603766 2.1242
167 1 9.90562 3.18249 9.88253 0.13153 -0.181356 2.51869
168 1 11.5567 4.91788 11.5194 -0.855044 1.18802 2.00981
169 1 13.218 3.28067 9.79523 1.84623 -0.145035 -0.708741
170 1 14.8298 4.93669 11.5734 -0.0446438 1.97236 0.59103
171 1 16.4962 6.65843 9.92188 0.672672 0.311736 -0.66941
172 1 1.72991 8.32114 11.3564 -0.386625 -0.616554 1.32231
173 1 3.4058 6.61146 9.86656 -2.46374 0.388359 -2.58139
174 1 4.95536 8.38729 11.5679 -2.26517 -2.01892 1.2823
175 1 6.47377 6.72818 9.89017 -0.835348 -0.26839 0.475889
176 1 8.23066 8.21473 11.5067 0.397155 -1.17435 -0.531632
177 1 9.88506 6.7032 9.73605 0.885339 -3.69976 1.90597
178 1 11.5266 8.31245 11.5656 1.20819 -0.124699 1.21826
179 1 13.1877 6.55194 9.93563 1.28432 -0.202838 -1.46836
180 1 14.7675 8.2356 11.4921 0.455071 0.116551 -0.319366
181 1 16.4582 9.88124 9.80366 2.06744 -1.04715 1.29266
182 1 1.68846 11.6039 11.4935 -0.540583 -1.43143 0.0988752
183 1 3.34305 9.95124 9.85777 0.163051 -0.8932 -0.332653
184 1 5.15582 11.4996 11.5241 -0.150298 -2.26706 0.138558
185 1 6.63308 9.95685 9.84627 0.0558694 0.311822 -0.620086
186 1 8.33309 11.6173 11.5456 -0.949263 -1.47642 -1.77001
187 1 9.96681 9.8938 9.96237 0.141083 1.34566 -1.20991
188 1 11.5479 11.5647 11.711 -1.48055 -1.3232 -0.11791
189 1 13.1995 9.93682 9.9612 1.53393 1.52518 -0.970752
190 1 14.94 11.7375 11.527 1.46148 -0.861337 0.905323
191 1 0.0970898 13.2544 9.93745 -2.02218 1.55435 0.273665
192 1 1.75066 14.9096 11.5494 -0.498971 0.578279 -0.160954
193 1 3.36025 13.2425 9.9337 -2.20707 -0.378434 0.753129
194 1 5.03343 14.8058 11.6151 -0.343124 -0.531374 0.690655
195 1 6.76702 13.1739 9.79831 -1.59943 -0.843765 0.640378
196 1 8.22281 14.8575 11.5118 -1.36616 0.291525 0.653786
197 1 10.0031 13.3025 9.95647 -0.943901 -0.217136 0.399526
198 1 11.5321 15.0117 11.5286 0.387467 0.447426 1.61417
199 1 13.225 13.2674 10.0658 1.21662 -1.07289 -2.51378
200 1 14.9189 14.926 11.6141 0.884514 0.97502 -0.156074
201 1 16.4613 0.0574296 13.2668 1.6967 -1.92872 -0.749293
202 1 1.63233 1.63111 14.888 -1.17875 -0.877572 -0.373658
203 1 3.32434 16.519 13.2563 1.39271 0.561836 0.116773
204 1 4.973 1.63072 14.831 0.28949 0.324921 2.77609
205 1 6.62267 16.5003 13.2129 -0.827901 0.0212972 -0.810562
206 1 8.26365 1.62095 14.7822 0.16812 1.69493 1.31925
207 1 9.8922 0.0254629 13.1946 1.91593 -0.958079 -1.2802
208 1 11.493 1.63532 15.0095 2.57592 0.0395563 -3.55758
209 1 13.2886 0.103653 13.1966 1.37257 -1.1592 -1.48594
210 1 14.7758 1.70028 14.9887 1.72011 1.55714 -0.933015
211 1 16.4865 3.27168 13.1699 0.674751 0.794387 1.4735
212 1 1.74259 5.05358 14.7999 -1.73344 -1.40774 -0.0971451
213 1 3.31273 3.33334 13.1907 -0.467821 -0.359419 -0.00637526
214 1 4.89868 4.89972 14.8627 -0.291447 -1.64818 -1.05073
215 1 6.57825 3.27432 13.1135 -0.855648 0.910049 1.31847
216 1 8.30562 4.99592 14.8493 0.943405 0.610257 -1.02181
217 1 9.87477 3.29023 13.2323 0.969183 1.24966 -1.051
218 1 11.5549 4.92958 14.9879 -0.103022 0.278353 -0.704655
219 1 13.1565 3.28736 13.2328 2.06035 -2.81153 0.558695
220 1 14.8222 4.95727 14.8565 0.212504 0.485535 -1.27194
221 1 16.4817 6.53271 13.1628 0.731285 0.0641564 -0.591137
222 1 1.6618 8.11336 14.5984 -0.130284 0.531702 3.81488
223 1 3.51921 6.63073 13.1021 -2.50716 2.5146 1.41697
224 1 5.05518 8.32587 14.8 -0.739628 0.593156 1.40516
225 1 6.61971 6.63718 13.1972 -0.670839 -0.133974 1.15326
226 1 8.19667 8.35169 14.9299 -0.192284 -0.89064 0.433428
227 1 9.92647 6.68718 13.2413 1.05783 0.661656 -0.365517
228 1 11.4952 8.43152 14.8308 0.423151 -0.831292 -0.331803
229 1 13.0643 6.60708 13.148 0.404005 1.38608 0.18361
230 1 14.826 8.15617 14.7194 1.78952 -0.0754757 1.10964
231 1 0.0529623 9.85685 13.0145 -1.13303 -1.86229 -0.373771
232 1 1.62707 11.5153 14.7118 1.36543 2.13253 1.2878
233 1 3.27466 9.88619 13.1563 1.85052 -0.615485 1.52895
234 1 4.90597 11.5172 14.8381 2.29283 -1.02142 1.44667
235 1 6.75537 9.96867 13.1727 -0.35882 -0.307698 0.774073
236 1 8.32402 11.6981 14.8993 -0.462503 -0.875436 -0.620611
237 1 9.84423 9.87649 13.189 -0.879201 1.20158 1.87898
238 1 11.7195 11.6194 14.6792 -3.0225 0.420399 0.951076
239 1 13.2174 9.9998 13.0972 1.21489 -0.68966 -0.585247
240 1 14.9878 11.5565 14.8565 -1.46514 1.11014 -1.02147
241 1 0.0963942 13.371 13.2244 -2.57229 -0.49453 0.493241
242 1 1.79292 14.9293 14.9706 -1.04769 -0.290445 -1.38214
243 1 3.31748 13.1589 13.1007 -0.0132864 0.559577 0.256583
244 1 4.88715 14.8826 14.8196 0.882649 -1.27682 2.00668
245 1 6.6043 13.137 13.1258 -1.05651 -0.681219 1.68155
246 1 8.29325 14.729 14.8738 -0.268222 1.62465 -0.27589
247 1 10.0118 13.2686 13.1299 -0.335237 1.18444 1.93715
248 1 11.5961 14.8261 14.8303 -0.674213 -1.22286 -0.230358
249 1 13.4283 13.1496 13.1814 -3.98109 -1.61292 -0.503216
250 1 14.7944 14.8689 14.9666 0.708626 0.604052 0.532748
