ITEM: TIMESTEP
430
ITEM: NUMBER OF ATOMS
250
ITEM: BOX BOUNDS pp pp pp
0.0000000000000000e+00 1.6520000000000000e+01
0.0000000000000000e+00 1.6520000000000000e+01
0.0000000000000000e+00 1.6520000000000000e+01
ITEM: ATOMS id type x y z vx vy vz
1 1 0.0552603 0.0856829 16.3523 0.523711 -0.553298 -2.47804
2 1 1.70791 1.60958 1.43856 0.0300742 -2.62451 -2.66167
3 1 3.29611 16.48 16.4313 1.4828 -0.266421 0.605534
4 1 4.82711 1.70661 1.6261 1.86897 0.629546 -1.35506
5 1 6.51978 0.198274 0.0732948 -1.267 0.103683 -0.0186702
6 1 8.45086 1.78155 1.57212 -0.580364 0.5429 -0.691653
7 1 9.91326 0.177421 16.4818 -1.55121 0.450784 0.588106
8 1 11.5736 1.77341 1.53013 1.35482 0.170745 1.57534
9 1 13.2525 16.4693 16.3851 -1.77145 0.134339 -0.127575
10 1 14.8004 1.58752 1.48523 -0.555406 2.20528 -0.545544
11 1 16.512 3.22578 16.437 0.284381 -1.94823 -2.39091
12 1 1.51744 4.96548 1.75282 0.0595697 -1.17026 1.54489
13 1 3.37527 3.32554 16.5194 -0.586029 0.420403 1.51803
14 1 4.88049 4.91579 1.62315 0.450581 2.82353 1.44746
15 1 6.60534 3.28123 0.052285 -0.94816 -1.0189 -1.53871
16 1 8.30023 4.88883 1.57487 1.76322 -1.91688 -0.653357
17 1 10.0048 3.41499 16.4234 -0.0503377 0.721144 1.67422
18 1 11.5906 4.90921 1.68901 0.868824 -0.344814 -0.588092
19 1 13.2912 3.28796 16.3519 -1.51021 0.303578 0.361563
20 1 14.6899 5.05269 1.67509 0.804981 0.4413 -1.34793
21 1 16.5152 6.67035 0.147126 0.943309 1.68073 0.77529
22 1 1.62471 8.35885 1.78125 1.57139 1.88988 -0.55453
23 1 3.19287 6.65839 0.246689 0.415449 1.40379 1.67448
24 1 4.96275 8.20872 1.68426 -0.68474 0.0738192 0.393629
25 1 6.54809 6.64569 0.0578171 -0.495663 1.97003 -0.395524
26 1 8.18268 8.09055 1.74963 0.590799 -1.19806 -0.163242
27 1 9.94713 6.51927 16.4731 -0.235226 -2.3257 1.24609
28 1 11.6179 8.26547 1.61743 -2.07857 1.41289 -2.56719
29 1 13.2233 6.64242 16.4679 -0.402118 0.370937 -0.603969
30 1 14.7396 8.3266 1.7309 1.05418 1.0545 1.50123
31 1 16.4482 10.0892 0.211329 -1.02848 -0.203026 0.954977
32 1 1.7868 11.7865 1.71306 -0.381726 0.463045 1.90438
33 1 3.47075 10.0145 0.17365 0.21603 -0.662049 0.507122
34 1 5.25709 11.5888 1.66002 2.73913 1.7774 -1.49402
35 1 6.64878 9.7854 0.0742269 -1.92287 0.283339 0.403278
36 1 8.47979 11.4506 1.66993 0.156698 -0.301207 1.04366
37 1 9.91942 9.72097 0.0253592 0.698739 0.0553606 -2.04429
38 1 11.4927 11.6894 1.57939 -1.15019 1.01832 1.36922
39 1 13.0843 9.97394 0.168981 -1.58175 0.663165 1.5993
40 1 14.7954 11.6741 1.72048 1.79241 1.77727 2.78732
41 1 16.403 13.2333 16.4296 -0.073573 -0.303789 -0.814584
42 1 1.69851 14.8023 1.45881 1.06047 -1.79101 2.98225
43 1 3.49556 13.2487 16.4474 -0.055159 -0.457395 0.337558
44 1 5.07104 14.8846 1.68439 0.70271 -2.22032 0.765358
45 1 6.76785 13.2303 0.0900047 -1.56343 1.13935 -0.620656
46 1 8.24104 15.189 1.66747 1.73241 1.46456 0.994052
47 1 9.89587 13.3366 0.00774807 0.99123 -1.78431 0.243533
48 1 11.6397 14.9195 1.5984 1.28581 1.35768 -0.218891
49 1 13.0778 13.3553 16.4353 -0.874282 -1.83676 0.609301
50 1 14.9686 14.9228 1.53414 2.11915 -0.477202 0.263614
51 1 0.0613157 16.4816 3.17626 -2.51357 1.08776 1.82999
52 1 1.60511 1.4864 4.79916 0.598031 0.356418 1.17956
53 1 3.26753 16.5104 3.26121 0.0297524 -0.419339 0.603132
54 1 5.01854 1.66708 4.91422 -0.932066 0.458498 1.84688
55 1 6.68575 0.0307091 3.24752 2.05057 -0.546236 0.173037
56 1 8.27589 1.68712 5.08468 -0.649291 -1.15875 -2.58116
57 1 9.98874 0.160926 3.33059 1.77212 -3.30651 0.0418071
58 1 11.471 1.83569 4.95277 -1.95578 0.298376 1.09214
59 1 13.2503 0.0621103 3.20139 -1.76733 -1.15526 -0.610866
60 1 14.7676 1.66369 4.73845 -0.927016 1.76036 0.641437
61 1 16.4296 3.42578 3.2373 -0.0367951 -0.632198 -2.04692
62 1 1.48651 5.03897 5.00917 1.00699 0.346002 0.658155
63 1 3.21351 3.39298 3.3307 0.639902 0.299843 -1.12386
64 1 4.90436 4.90723 4.98422 0.0489251 -1.70667 1.78778
65 1 6.60012 3.27925 3.18247 0.391636 0.594833 -0.193302
66 1 8.43086 4.96037 5.07099 0.543304 -1.35988e-05 0.230283
67 1 9.96199 3.3188 3.3097 -0.922415 0.714259 0.403262
68 1 11.5846 4.9901 4.89203 1.95595 1.23703 2.23712
69 1 13.136 3.30647 3.21063 1.09964 -0.337098 0.263221
70 1 14.7175 4.89024 5.01892 -0.489363 0.922209 1.74356
71 1 16.3865 6.56479 3.22064 -0.654012 1.02957 0.688452
72 1 1.67493 8.13042 4.81352 2.41845 -1.34895 1.66961
73 1 3.39606 6.56278 3.33338 -0.376072 0.684494 0.844774
74 1 4.9718 8.19302 4.96925 -0.358204 -0.0534573 0.733538
75 1 6.65069 6.41496 3.30881 1.87546 2.49354 -1.17872
76 1 8.14112 8.13197 5.05072 0.202824 -0.496451 -0.286127
77 1 9.92465 6.58298 3.44506 -0.104583 -0.338103 -1.11112
78 1 11.6165 8.2518 5.03984 0.381857 0.168876 -1.66185
79 1 13.1429 6.61888 3.28305 1.47332 -1.27903 -0.00639524
80 1 14.8356 8.23618 4.91027 -1.38729 1.0846 -0.503341
81 1 16.4958 9.88076 3.37073 2.05225 -1.31362 -0.14504
82 1 1.65395 11.6484 4.94199 1.59258 1.32434 -0.398398
83 1 3.4157 9.99872 3.29881 0.0197805 -2.5976 0.117843
84 1 5.12423 11.5434 4.91411 0.46854 0.696128 1.17921
85 1 6.80237 9.90637 3.27699 -1.33111 1.57331 0.488746
86 1 8.43457 11.6763 4.95257 -0.138658 -0.879336 -0.0872496
87 1 10.0554 9.78198 3.2936 -0.847981 0.824842 -0.819534
88 1 11.5895 11.6715 4.93052 -0.176178 -0.81812 2.59145
89 1 13.2798 10.1028 3.21703 -0.52928 1.96336 1.28974
90 1 14.9587 11.7653 4.98294 -0.822474 1.56873 0.459847
91 1 0.0810001 13.3238 3.22056 0.391584 1.45305 -0.3814
92 1 1.69843 14.929 4.84171 0.406174 -1.88132 -0.304199
93 1 3.40826 13.2359 3.24713 1.32587 -0.340767 0.24848
94 1 5.06143 14.807 4.84146 0.263565 0.714523 0.283531
95 1 6.86924 13.2814 3.22259 -1.62982 -0.452106 1.62887
96 1 8.46183 15.0431 4.9265 -0.0920284 0.676087 -1.90204
97 1 9.99415 13.2726 3.2626 1.56322 -1.07444 1.47825
98 1 11.5599 14.8984 4.96887 0.185783 1.97183 -1.77915
99 1 13.2131 13.2601 3.26447 0.0798163 1.53034 0.18404
100 1 14.9744 14.8901 4.79032 0.56443 0.29674 -0.673149
101 1 0.0164424 0.0265575 6.45659 -0.932824 -0.293204 1.67906
102 1 1.63594 1.55319 8.0773 -2.06872 -0.702415 0.724061
103 1 3.34494 16.5046 6.42305 -1.1451 -2.48052 1.54352
104 1 5.01408 1.65714 8.29209 -0.446228 -0.913617 0.121573
105 1 6.54149 0.0398916 6.64078 1.37947 -1.01852 -0.760045
106 1 8.25383 1.6343 8.43254 0.617535 -1.53918 0.59647
107 1 10.0344 0.0667709 6.74718 -1.47323 -0.117709 -1.02337
108 1 11.5639 1.71185 8.32963 0.0471995 -1.51847 -0.459316
109 1 13.3208 0.0556256 6.50324 0.0486403 0.406213 -0.471865
110 1 14.826 1.69128 8.28124 0.842736 -2.51168 -0.721241
111 1 16.4984 3.26066 6.47579 -0.695159 -0.615678 -0.0197723
112 1 1.58723 4.93027 8.07529 0.949465 1.11986 -0.186007
113 1 3.19787 3.16636 6.52763 1.20531 0.71171 0.764133
114 1 4.91132 5.02434 8.19403 1.47277 -0.63889 0.406805
115 1 6.66248 3.32505 6.62427 -0.604094 0.712177 0.888692
116 1 8.28479 4.9151 8.38544 -0.702718 -0.656059 0.403803
117 1 9.87665 3.26978 6.68176 -1.8323 -0.411051 2.61593
118 1 11.7526 5.00082 8.25979 -0.856605 0.606268 0.341591
119 1 13.1802 3.1899 6.59268 -0.306477 0.489212 1.6894
120 1 14.8955 5.01562 8.23939 0.75236 0.70475 1.06909
121 1 16.3568 6.66084 6.53685 0.183172 -0.144745 0.164511
122 1 1.69694 8.26851 8.23063 1.10638 -2.0746 1.12516
123 1 3.34765 6.65414 6.58437 -1.22362 2.5565 0.820644
124 1 4.96011 8.07819 8.32725 -1.16226 0.218918 2.11047
125 1 6.5812 6.57045 6.65716 -0.121175 0.592143 1.34093
126 1 8.3013 8.16291 8.29746 -2.21245 1.90394 0.0210431
127 1 9.91921 6.51791 6.63176 1.15592 0.965925 -0.0635143
128 1 11.5037 8.22116 8.19833 0.76498 0.0393712 -0.855856
129 1 13.1637 6.63287 6.637 1.61453 0.798931 -1.0015
130 1 14.9419 8.25901 8.22941 -0.00324279 -0.322554 -0.378179
131 1 0.0319078 9.77864 6.49743 -2.21099 -2.10058 -0.556941
132 1 1.74712 11.4624 8.22162 0.609595 0.0434347 -0.0895242
133 1 3.29556 9.75325 6.42933 -2.24531 0.53042 1.37213
134 1 5.00028 11.5154 8.34319 1.26776 -2.368 0.0860433
135 1 6.62106 9.78266 6.6626 -0.878397 0.13618 -0.322061
136 1 8.08913 11.5629 8.26609 -0.637668 -0.836816 1.57368
137 1 9.86262 10.0032 6.69 0.0365797 0.947513 1.60633
138 1 11.582 11.5076 8.13694 1.52876 -0.940035 0.821213
139 1 13.2856 9.9227 6.59422 0.774324 -1.03021 1.53942
140 1 15.0236 11.6008 8.15586 -1.11715 1.16826 -0.774987
141 1 0.0883759 13.3255 6.55923 0.491967 -0.164074 -1.06349
142 1 1.67305 14.9939 8.25649 -0.171284 1.4617 -1.09952
143 1 3.37552 13.1452 6.63411 -0.783974 0.599949 -0.94012
144 1 4.94285 14.9341 8.21697 -0.271009 0.226197 1.02066
145 1 6.54631 13.2807 6.55076 1.0621 -0.22015 -0.743108
146 1 8.16142 14.9639 8.34113 -1.16726 0.995811 -0.820645
147 1 9.86497 13.3758 6.67463 -0.636861 0.628727 -0.788429
148 1 11.6815 14.8645 8.23693 0.140337 -1.07058 -2.14131
149 1 13.3063 13.219 6.55575 1.94087 0.266067 0.446649
150 1 14.7703 14.891 8.2001 0.813013 -1.35186 0.355254
151 1 16.4291 16.3903 9.75179 0.811614 0.150252 -0.200998
152 1 1.73639 1.67726 11.5371 -2.11123 -0.865697 0.212207
153 1 3.31024 0.0545934 9.88199 -2.24971 -1.45376 -0.360695
154 1 4.88123 1.66617 11.5531 -0.628186 1.5236 0.869221
155 1 6.63625 0.0229973 9.85388 0.686848 -0.914363 0.447423
156 1 8.24076 1.7655 11.6714 1.8847 -1.18994 -0.977156
157 1 9.86001 0.092839 10.0502 -0.468096 -0.166667 -0.953609
158 1 11.6196 1.59028 11.6425 0.163051 1.0305 0.805197
159 1 13.218 0.0258821 9.98143 -0.00963301 -0.76701 0.106963
160 1 14.9802 1.55496 11.5755 -0.974978 0.297727 -1.00054
161 1 0.0310216 3.19557 9.7844 -1.56336 -1.8479 -2.78937
162 1 1.59311 4.84437 11.5446 -0.150205 2.13485 -0.222554
163 1 3.23483 3.31354 9.76285 1.15748 0.242912 -2.28582
164 1 4.9031 4.95282 11.6638 0.537322 -0.979124 -0.383226
165 1 6.50131 3.23224 10.06 -0.779964 1.06707 -2.3983
166 1 8.24206 4.91489 11.6305 1.73836 0.614455 -0.674936
167 1 9.87582 3.32364 10.0845 1.51201 -1.51868 -0.0776841
168 1 11.6936 5.06066 11.5812 -1.99427 1.04987 -0.0537919
169 1 13.2079 3.31838 10.1268 0.747326 -1.28062 -3.10172
170 1 15.1224 4.9856 11.5497 1.82839 0.0916377 0.500243
171 1 0.0310319 6.60304 9.89766 1.4461 1.20179 0.720274
172 1 1.61919 8.30233 11.6995 -0.341369 -0.360656 -0.959937
173 1 3.25975 6.50045 10.0384 -0.729213 -1.79568 -0.705044
174 1 4.86184 8.17024 11.5765 -1.96942 0.800755 2.15946
175 1 6.56597 6.46021 9.9301 -2.18 1.64006 1.44872
176 1 8.16747 8.28644 11.6792 -1.64301 -1.49841 -0.136218
177 1 9.89709 6.70941 9.98899 0.278686 -0.372568 -1.71627
178 1 11.628 8.23961 11.566 0.176586 -1.0854 1.16498
179 1 13.2784 6.68236 9.97762 1.14371 -0.738093 1.02839
180 1 15.006 8.32425 11.6501 -0.494622 1.03974 1.72487
181 1 16.5199 9.89044 9.92046 -1.37182 -1.38548 0.737797
182 1 1.66817 11.545 11.6935 0.314516 -0.546762 -1.42361
183 1 3.2525 9.75577 10.0123 0.267631 0.0662266 1.24114
184 1 4.82896 11.6202 11.6576 2.19012 -0.948365 0.444795
185 1 6.47313 9.86291 9.95952 -0.647591 1.46556 -0.447598
186 1 8.03192 11.5265 11.6664 -0.488839 -0.528245 -0.370382
187 1 9.78078 9.90739 9.93153 -0.311529 1.76541 0.388804
188 1 11.5974 11.5353 11.5228 -1.52986 -1.24084 1.58075
189 1 13.1214 9.80621 9.83376 0.239532 0.32371 -1.51938
190 1 14.6377 11.4766 11.5509 0.0256331 0.493027 -0.103578
191 1 0.0348314 13.0256 9.87911 0.66487 -0.264542 -0.133676
192 1 1.58216 14.7037 11.503 -0.607049 1.06482 -1.56596
193 1 3.25233 13.2451 9.88184 -0.0396703 0.338704 -0.00573622
194 1 4.8028 14.9181 11.6006 1.42785 -0.139059 1.09637
195 1 6.55731 13.2499 9.95146 2.13093 -0.0647988 -1.72509
196 1 8.23861 14.8659 11.5526 -1.24871 0.575455 -0.598037
197 1 9.77352 13.0973 9.93523 0.490182 -0.572794 -0.751516
198 1 11.3923 14.7392 11.4743 -2.10766 1.394 0.994964
199 1 13.198 13.091 9.84801 -0.268511 -1.76796 0.00846076
200 1 14.7935 14.6309 11.5021 0.169987 -0.719736 0.0199209
201 1 16.5155 16.4807 13.0608 0.386488 -1.446 -2.60563
202 1 1.60658 1.70302 14.8278 0.647192 0.244642 -1.67553
203 1 3.08762 16.4202 13.2379 -1.81389 0.507168 -0.924954
204 1 4.9012 1.67493 14.7573 -1.70877 -1.42616 0.874958
205 1 6.57265 0.0535166 13.2892 0.778324 -0.308031 -2.05589
206 1 8.28207 1.6511 14.8901 -1.60896 0.288536 0.278886
207 1 9.87541 0.00509909 13.1888 -0.0121693 -0.3617 -0.632096
208 1 11.6421 1.72683 14.8985 0.444027 -0.189502 0.785751
209 1 13.2136 16.481 13.1364 -0.35161 0.516719 -2.0114
210 1 14.8927 1.59584 14.759 -2.65523 1.07678 -0.330599
211 1 16.5068 3.21092 13.1196 0.737672 -0.688145 -0.46739
212 1 1.55009 5.05719 15.0137 1.11135 0.103554 -1.00726
213 1 3.28928 3.34139 13.2918 0.231255 1.37537 -0.399295
214 1 4.86895 5.02534 14.9892 -1.1898 -1.42845 0.238532
215 1 6.43653 3.27328 13.311 -1.738 0.947988 -0.159064
216 1 8.2414 4.95374 14.9783 -0.361712 0.570443 -1.22688
217 1 9.92059 3.30197 13.2561 0.363516 1.18532 0.693974
218 1 11.7039 4.94915 14.8269 0.947238 0.00545643 1.27644
219 1 13.3495 3.39262 13.167 0.092886 -2.29561 0.61816
220 1 14.9865 4.93665 14.9579 1.22474 0.142993 -1.17187
221 1 0.00196537 6.68728 13.4891 0.963242 -1.41003 -0.500311
222 1 1.66104 8.30833 15.0506 0.717871 -1.76895 -1.67273
223 1 3.2063 6.49236 13.3562 1.98203 0.0281141 -2.37332
224 1 4.92403 8.16011 14.9899 -0.397987 2.12458 -0.132481
225 1 6.51967 6.5826 13.2443 0.313821 -1.20422 0.428567
226 1 8.2513 8.21836 14.7847 -1.8381 1.29662 0.901855
227 1 9.92192 6.52566 13.173 0.837848 -0.749531 -0.00685223
228 1 11.5855 8.23282 14.8482 -1.32373 1.91733 -0.451029
229 1 13.4276 6.66068 13.1852 -0.982779 0.640995 -0.804129
230 1 14.8304 8.35253 15.0309 -0.333198 0.433537 -1.10396
231 1 0.046987 10.0814 13.4939 -1.62876 -0.843034 -2.14848
232 1 1.70422 11.5741 15.0827 0.805673 1.2336 0.285467
233 1 3.22095 9.83099 13.3749 0.334633 -1.42916 0.795035
234 1 5.01076 11.5569 14.9198 1.91589 -0.387939 -0.315511
235 1 6.37866 9.78262 13.2071 -0.177106 1.80047 0.993095
236 1 8.29624 11.3847 14.83 1.02684 0.856476 0.399596
237 1 10.0616 9.7824 13.0994 -1.06759 -0.273922 0.897314
238 1 11.5065 11.5397 14.9363 0.398529 1.7268 -1.76143
239 1 13.0084 9.90943 13.2772 0.0164906 1.34231 -0.826648
240 1 14.7158 11.5569 14.9726 0.364357 -0.0573073 1.7905
241 1 16.4945 13.043 13.1821 -0.0584753 1.52757 0.0833448
242 1 1.63905 14.8019 14.9031 0.134366 1.22086 -0.473367
243 1 3.27794 13.2048 13.3243 -0.273947 -0.0029736 -1.41253
244 1 5.0294 15.0237 14.8211 -0.0330236 -0.470907 0.340893
245 1 6.5383 13.2628 13.1605 -0.822792 -0.76367 0.388637
246 1 8.25697 14.9057 14.8725 0.366451 -2.84228 1.39497
247 1 9.87008 12.9969 13.1998 2.18285 -0.115444 0.0784385
248 1 11.4592 14.869 14.7553 -2.10776 -1.21636 -3.1933
249 1 13.2258 13.0564 13.2667 0.426838 -1.58443 -1.38417
250 1 14.8867 14.7398 14.6367 -0.266561 0.607853 -0.962865
