ITEM: TIMESTEP
690
ITEM: NUMBER OF ATOMS
250
ITEM: BOX BOUNDS pp pp pp
0.0000000000000000e+00 1.6520000000000000e+01
0.0000000000000000e+00 1.6520000000000000e+01
0.0000000000000000e+00 1.6520000000000000e+01
ITEM: ATOMS id type x y z vx vy vz
1 1 16.474 0.00922466 0.0739086 -1.14386 1.04349 -0.241747
2 1 1.67305 1.67862 1.71168 -0.40716 1.73031 -1.11975
3 1 3.22283 16.4266 0.0975732 2.43226 -0.236096 -0.703072
4 1 4.84015 1.55961 1.63485 0.627237 0.378154 0.208033
5 1 6.56939 0.0542573 16.4684 0.399372 -0.254786 -0.509432
6 1 8.22312 1.60075 1.70412 2.03677 1.07637 -0.121702
7 1 9.93355 16.5122 0.128341 1.11907 -0.668839 -0.892133
8 1 11.5201 1.56588 1.69503 -0.192202 2.56402 -2.00119
9 1 13.2141 0.0594891 0.103538 -1.80367 -1.00875 0.694743
10 1 14.904 1.67846 1.74568 -1.51428 -1.06045 0.558321
11 1 0.00102284 3.21243 0.0368496 0.359904 0.581537 1.44419
12 1 1.62548 4.87868 1.5777 1.43815 -1.86691 -0.397693
13 1 3.3572 3.34146 16.4275 -0.39025 -0.738653 1.14621
14 1 5.00102 4.94359 1.65153 1.22445 1.5715 -0.248142
15 1 6.62537 3.29214 16.4754 0.146294 -0.112962 1.26809
16 1 8.37466 4.82857 1.61337 0.0891476 -1.04408 -1.67766
17 1 9.87725 3.24522 0.0742423 -0.99465 0.474103 -0.582665
18 1 11.5752 4.94449 1.66023 2.87088 -1.39647 0.0281839
19 1 13.1834 3.25074 0.146226 -0.0497627 1.47131 -0.906751
20 1 14.8608 4.8951 1.63981 -0.754788 -0.0183806 -1.40691
21 1 16.5023 6.59305 16.4567 0.815208 0.360863 0.790116
22 1 1.57701 8.19139 1.56967 1.9574 0.731379 -1.52058
23 1 3.34092 6.56077 0.0191798 -1.06889 -0.205269 -1.11938
24 1 4.91591 8.18393 1.59125 -0.627083 -2.18832 1.74591
25 1 6.52959 6.63264 16.4323 1.52079 -0.372467 0.812017
26 1 8.30687 8.18148 1.55072 -0.51668 0.399419 0.378861
27 1 9.9166 6.56487 0.0235665 0.800184 0.752204 1.09936
28 1 11.5183 8.21965 1.62958 -0.806606 -1.96892 0.943223
29 1 13.206 6.5428 0.0328672 -1.48109 0.20437 0.996658
30 1 14.8719 8.17011 1.62439 0.243376 -0.391244 0.622769
31 1 16.432 9.85758 16.4883 0.313735 -0.724644 -0.588071
32 1 1.51705 11.5517 1.5666 0.79577 -0.285011 1.20936
33 1 3.29257 9.86062 16.4774 1.00793 -0.929148 1.11209
34 1 4.90179 11.5516 1.52566 -1.37177 1.74891 1.61287
35 1 6.55774 9.88022 16.5016 -0.884233 -0.0623756 0.618723
36 1 8.25146 11.4366 1.62447 0.0521037 0.943563 -1.16465
37 1 9.8281 9.86595 16.4751 -0.717076 1.04041 0.703537
38 1 11.5186 11.592 1.65757 -0.34071 0.835757 2.0976
39 1 13.1489 9.87458 0.0661543 0.777234 0.560981 -1.23099
40 1 14.8606 11.5429 1.56945 1.02903 0.922098 -1.37776
41 1 0.00811421 13.1595 16.4475 0.926086 1.01428 0.821758
42 1 1.62146 14.8542 1.71292 -1.23264 -0.0577952 -0.118782
43 1 3.28094 13.2125 16.4528 0.594283 0.897641 2.30848
44 1 4.91444 14.8664 1.61917 0.166171 0.889565 -1.48737
45 1 6.56337 13.2676 16.4631 -0.881921 -0.362836 -0.836186
46 1 8.2671 14.7707 1.57557 1.36728 0.729041 -0.793774
47 1 9.95386 13.1632 16.4582 0.0557236 0.443886 -0.303426
48 1 11.5525 14.7577 1.72213 -0.961596 -0.577492 1.27789
49 1 13.1878 13.1982 0.0612119 0.772191 1.19904 -0.492352
50 1 14.9054 14.8188 1.71133 -1.36346 -1.84667 -0.64485
51 1 0.0187542 0.0825299 3.38502 -1.91834 2.88024 -0.280936
52 1 1.67396 1.60103 4.91666 -1.06721 1.91509 -1.7684
53 1 3.24182 16.5025 3.32485 0.216748 0.0319804 0.404427
54 1 4.88846 1.63826 4.93029 0.294608 0.319425 -1.11617
55 1 6.56778 16.4663 3.31466 0.889444 0.471173 -1.92462
56 1 8.1233 1.65519 4.96182 0.417845 1.3702 -2.31747
57 1 9.91122 16.4509 3.32193 1.38465 1.15077 -1.09026
58 1 11.5756 1.5603 4.94762 0.84965 -0.0142325 -0.949591
59 1 13.2111 16.4246 3.40822 0.173867 0.425814 -0.255305
60 1 14.8585 1.59393 4.98459 -0.371783 0.498157 0.255036
61 1 16.4923 3.3144 3.3308 0.417722 -2.09889 -0.812271
62 1 1.72972 4.87986 4.9221 -0.0893054 0.696645 -0.0590541
63 1 3.27333 3.35703 3.2423 -0.204724 -0.103539 -0.707153
64 1 4.98683 4.91722 4.97007 -1.47379 0.188229 1.03977
65 1 6.54849 3.18976 3.23128 2.1204 0.959965 -0.891437
66 1 8.33622 4.90795 4.98874 -0.365136 -1.50824 0.127621
67 1 9.87821 3.15358 3.31989 -0.676214 0.345642 -0.775617
68 1 11.5945 4.96622 5.03181 0.274586 0.306919 1.42364
69 1 13.2144 3.29927 3.41359 1.41402 -0.445947 -1.47891
70 1 14.8826 4.96395 5.02238 2.56377 0.637545 0.490857
71 1 16.4271 6.60413 3.23588 0.120079 -0.114582 0.513756
72 1 1.5889 8.23538 4.82365 -0.102293 -1.12957 -0.00300896
73 1 3.27715 6.52186 3.28829 -0.114902 -0.319836 -1.27361
74 1 4.81919 8.24127 4.82037 0.59121 -1.28013 -2.74219
75 1 6.7092 6.57202 3.1355 1.0156 0.442825 -0.117332
76 1 8.21887 8.24658 4.83079 0.874417 0.879462 -2.36091
77 1 9.89977 6.52328 3.28219 1.14069 0.977613 -0.883927
78 1 11.5054 8.1872 4.92332 -1.1839 -0.172095 -0.759207
79 1 13.2251 6.53132 3.35076 0.262746 -1.54452 -0.855353
80 1 14.773 8.31947 4.9343 -0.502726 -0.0452447 -1.6203
81 1 16.3352 9.79564 3.2178 0.695532 1.59931 -0.867236
82 1 1.5448 11.6186 4.9682 0.131158 2.1006 -0.659782
83 1 3.20183 9.82931 3.22768 -0.387658 -0.981574 0.0983276
84 1 4.87115 11.583 4.84614 0.483684 1.16304 -0.0134264
85 1 6.53996 9.86799 3.25714 1.39079 0.93147 0.00896713
86 1 8.16516 11.5011 4.89942 1.60866 -0.446349 0.694859
87 1 9.93229 9.80362 3.18706 1.14173 -0.646212 0.983077
88 1 11.532 11.5844 4.96957 -0.747469 -0.753935 -0.0994298
89 1 13.0972 9.89682 3.2928 -2.74064 0.554572 1.6718
90 1 14.7431 11.6336 4.99255 -1.11702 1.58455 -0.546562
91 1 16.515 13.1121 3.25804 -0.749474 -0.353977 -1.91073
92 1 1.63193 14.8399 4.98857 -1.08813 -1.17748 -1.74058
93 1 3.25488 13.1841 3.22032 1.28562 -0.484904 1.90869
94 1 4.8403 14.8675 4.914 2.10361 3.06067 -0.567229
95 1 6.60959 13.1746 3.27326 1.39505 0.584092 -0.704659
96 1 8.22808 14.7664 4.96086 0.147705 1.35958 0.80586
97 1 9.86301 13.1284 3.26426 0.50531 1.15028 0.517944
98 1 11.5635 14.8225 4.9788 -2.02585 -0.38014 -1.75626
99 1 13.2105 13.1971 3.24105 0.429262 1.03277 -1.86062
100 1 14.8811 14.8223 4.99776 -0.503217 -2.15465 -0.942055
101 1 16.5106 0.0525145 6.70181 -0.988981 0.247619 1.40163
102 1 1.71194 1.6365 8.21114 -0.883808 -1.68666 1.16159
103 1 3.22993 16.5178 6.65709 -0.550092 0.611346 -1.04078
104 1 4.96014 1.65896 8.31056 -0.704183 -1.20667 0.70671
105 1 6.65975 0.0614903 6.59084 -0.0516471 -1.29842 -0.0380067
106 1 8.2675 1.6726 8.28004 1.12323 0.960912 -1.13613
107 1 9.83987 0.0581723 6.5517 0.040761 0.440939 -0.296198
108 1 11.4848 1.70535 8.34023 0.0804543 0.269382 0.688373
109 1 13.1923 0.0474173 6.66472 -0.278496 -0.447103 -0.611869
110 1 14.851 1.63558 8.38899 1.51693 -2.91347 -1.16145
111 1 0.0623235 3.27451 6.52029 -1.4096 -0.523897 -1.04357
112 1 1.61715 4.98966 8.24895 -0.898612 -0.317809 -1.23596
113 1 3.30121 3.39283 6.65274 -1.33397 1.02578 1.36133
114 1 5.05819 5.03081 8.18748 -0.153502 0.928478 1.0518
115 1 6.53261 3.23174 6.5018 -0.0151134 -2.18909 0.250801
116 1 8.27431 4.95064 8.09921 -0.515697 0.543413 0.835161
117 1 9.92569 3.23681 6.60344 0.438544 0.222388 1.29475
118 1 11.5822 4.94871 8.18841 1.02711 0.175982 -0.373468
119 1 13.3226 3.33649 6.65118 1.6614 -0.655907 0.251607
120 1 14.8912 4.94694 8.25457 0.326816 -0.0301653 -2.70811
121 1 0.0166553 6.61719 6.46503 -0.977566 0.915541 0.138429
122 1 1.60881 8.18568 8.14935 2.00226 0.493129 -1.26188
123 1 3.26045 6.54194 6.58859 0.098074 0.585954 -0.0566885
124 1 4.9519 8.27216 8.16426 -0.799598 -1.60858 0.201711
125 1 6.62347 6.64726 6.38027 -0.358498 -0.511679 1.56224
126 1 8.20308 8.24285 8.19562 -3.03139 0.502453 0.752736
127 1 9.87985 6.58642 6.65365 -0.701506 -2.42163 0.495848
128 1 11.5769 8.17439 8.13919 1.30889 -0.533851 0.49144
129 1 13.2367 6.63315 6.47548 3.52698 2.79382 1.37696
130 1 14.7542 8.24104 8.20322 0.229015 -0.409658 0.70475
131 1 16.4002 9.89507 6.52886 -0.213903 0.147195 -1.16122
132 1 1.67924 11.617 8.16429 0.14498 0.793291 -0.697862
133 1 3.21164 9.90674 6.55577 -1.71326 -0.943354 0.0169038
134 1 5.03763 11.5521 8.19297 2.13437 0.299384 -0.489765
135 1 6.6039 9.93212 6.49389 -0.615964 -1.44545 0.288513
136 1 8.33094 11.5668 8.36075 0.940436 -3.32785 -1.92137
137 1 9.83296 9.89679 6.46885 0.608283 -0.810193 0.314799
138 1 11.6293 11.5257 8.28153 -0.364282 0.186124 -0.372198
139 1 13.154 9.93035 6.61062 -1.14906 -1.6409 -0.959388
140 1 14.898 11.6063 8.32346 -1.86899 -0.10349 -0.571683
141 1 16.5036 13.2334 6.6289 0.733529 -1.28089 -1.37856
142 1 1.63262 14.9816 8.28111 -0.0712101 -1.02518 -2.35017
143 1 3.2277 13.3294 6.63913 0.34827 1.00548 -1.68234
144 1 4.95212 14.9385 8.24517 0.290434 0.720809 2.11304
145 1 6.63442 13.2732 6.58758 1.49293 1.62567 0.190716
146 1 8.23963 14.8793 8.41555 -0.120181 3.18759 -2.09355
147 1 9.78904 13.2605 6.72141 -0.8532 0.337349 0.311145
148 1 11.595 14.9049 8.30636 -0.802204 1.93158 0.45723
149 1 13.2568 13.2477 6.69514 2.03524 2.02067 -1.24429
150 1 14.8894 14.9448 8.30852 1.70568 0.55842 -0.581064
151 1 0.0612621 0.158943 10.0265 1.09782 1.01903 -0.661081
152 1 1.66807 1.76761 11.7064 -0.848792 -1.20068 0.714403
153 1 3.33822 0.0926694 10.1217 -2.67834 -2.15442 -0.461716
154 1 5.00576 1.74412 11.6259 -0.885687 0.286671 1.07496
155 1 6.59127 0.0483587 9.98094 -2.07794 -0.311444 2.27429
156 1 8.33066 1.62099 11.5987 -1.33612 1.89368 2.08917
157 1 9.86683 0.096935 9.96096 -0.454976 -0.682006 1.08092
158 1 11.5922 1.69823 11.6733 -1.2007 2.82241 0.907338
159 1 13.2024 0.000168408 10.0663 2.07604 1.44471 -0.829876
160 1 14.9188 1.69963 11.7362 0.274363 0.7069 0.425503
161 1 0.0372131 3.29687 9.84026 0.127249 -0.333813 1.63358
162 1 1.61277 5.07533 11.5843 -2.5686 0.426826 0.358843
163 1 3.48278 3.3887 9.84518 -0.763111 1.58823 -0.126819
164 1 4.94907 5.02737 11.5108 -0.41559 -0.24276 0.423009
165 1 6.75941 3.355 9.98437 -0.241306 0.330962 -0.822448
166 1 8.30542 4.94028 11.4783 1.87382 -1.48624 1.65445
167 1 9.9624 3.33869 9.9606 -0.643625 -1.71632 -0.521451
168 1 11.6205 4.99191 11.5932 -0.420916 -1.16467 -0.408864
169 1 13.1902 3.32648 10.0821 -1.07177 0.134298 -2.18012
170 1 14.9452 4.8803 11.5655 -0.695932 -0.778313 0.927978
171 1 0.0415318 6.70263 9.88057 0.853695 -0.303693 -0.0961947
172 1 1.54348 8.33087 11.5529 0.209078 -0.483122 -1.03749
173 1 3.39735 6.70514 9.87492 -1.13368 -0.538655 0.215916
174 1 5.00013 8.29227 11.4864 -1.31311 1.93964 2.17773
175 1 6.75535 6.61255 9.82676 -2.88161 -0.714767 1.44135
176 1 8.22719 8.23116 11.4892 -1.04657 0.0722236 1.12697
177 1 10.0125 6.58994 9.86076 -0.656195 -1.8996 -1.24213
178 1 11.5402 8.35289 11.5372 1.44435 0.08245 0.766037
179 1 13.197 6.61373 9.96928 1.35914 1.33397 1.39414
180 1 14.836 8.33951 11.4559 -0.377395 0.902517 1.12082
181 1 0.0996764 9.92164 9.91536 -1.06113 -0.558231 0.229599
182 1 1.74016 11.6739 11.5068 0.929497 -2.35209 0.379168
183 1 3.41858 10.0066 9.88459 0.511479 -1.79876 1.57708
184 1 5.01865 11.5797 11.6021 0.29369 0.22022 -1.26745
185 1 6.58967 9.97072 9.90798 0.828414 -1.78461 -0.17819
186 1 8.36173 11.5989 11.5485 0.471555 -1.51188 0.799928
187 1 9.8604 9.9334 9.86248 0.641915 -0.74467 1.51766
188 1 11.6464 11.6809 11.6254 -0.870989 1.07889 1.7116
189 1 13.1794 10.0117 9.93973 0.638352 -0.572787 2.30585
190 1 14.884 11.5908 11.5894 1.55538 0.500831 -0.288597
191 1 0.135538 13.2061 9.91348 0.548514 1.33695 -0.11748
192 1 1.6484 14.8135 11.6457 0.249914 0.530238 -1.47896
193 1 3.3947 13.3221 9.93544 -1.33771 -2.49344 -0.906349
194 1 4.98771 14.9253 11.6048 -0.53062 0.610106 0.401942
195 1 6.54485 13.2584 9.95199 2.04982 -0.0149052 0.240758
196 1 8.25153 14.9614 11.4591 0.904218 -0.447977 0.818059
197 1 10.095 13.2349 9.88211 -1.79492 -1.77236 -0.549208
198 1 11.6023 14.9353 11.6655 2.42902 -2.10933 -1.02132
199 1 13.2935 13.2073 9.96945 -0.506198 -0.326089 1.04999
200 1 15.0198 14.8879 11.6149 0.35212 -0.067222 0.45326
201 1 0.0588175 0.0623116 13.4021 2.254 0.382861 0.49079
202 1 1.60422 1.67846 15.0076 -0.179644 1.18683 -1.05582
203 1 3.27382 0.0489098 13.3441 -0.389475 -0.0425898 -0.672869
204 1 4.98439 1.71964 14.9276 -0.317979 0.861902 1.26047
205 1 6.56259 0.049327 13.2365 0.139532 1.33506 -0.624599
206 1 8.2929 1.63705 14.8981 -0.69902 -0.120917 -2.51861
207 1 9.85392 0.00502562 13.207 0.906373 1.66175 0.0520907
208 1 11.5223 1.61368 14.9373 -1.51622 -1.65924 -0.886315
209 1 13.2951 0.0100859 13.2901 -0.317644 3.18171 0.787178
210 1 14.7644 1.78969 14.9812 0.70955 -1.50589 -0.745001
211 1 0.0610104 3.36968 13.3113 1.21291 -0.366602 1.34132
212 1 1.61839 4.99376 14.9628 1.09635 -0.362126 1.22146
213 1 3.36633 3.41815 13.2804 -3.11351 -0.249035 2.3439
214 1 5.03179 4.92908 14.7929 -1.96713 0.549043 0.506492
215 1 6.70817 3.3619 13.252 -0.135672 -0.0755631 -0.221509
216 1 8.29598 4.94814 14.9171 2.61371 0.379627 0.593376
217 1 9.91226 3.29222 13.3033 0.469179 2.88562 -1.45252
218 1 11.6217 4.96593 14.9377 0.511048 -0.65082 -1.1565
219 1 13.1851 3.2763 13.3243 -2.83773 -0.589786 -0.794169
220 1 14.8415 5.0401 14.9093 -0.122833 0.369166 0.777228
221 1 0.0109622 6.66878 13.197 -0.286799 -0.720528 -0.487344
222 1 1.64577 8.20398 14.7981 -1.62507 -1.12264 0.311758
223 1 3.34505 6.62514 13.1736 0.386648 0.131459 -0.848673
224 1 4.89745 8.20204 14.7603 0.0234161 -0.78505 0.779587
225 1 6.69998 6.58249 13.1102 -2.25475 -2.02865 0.430583
226 1 8.29159 8.21956 14.7706 -2.27898 -1.3869 2.52443
227 1 9.95306 6.62262 13.1023 1.62056 -1.73893 3.4123
228 1 11.6022 8.25056 14.8409 -0.254417 1.79527 2.69842
229 1 13.3142 6.62746 13.1374 0.597242 -1.06322 0.754643
230 1 14.7847 8.245 14.7988 -0.25677 1.41667 -2.63824
231 1 0.0121735 9.93594 13.1754 0.186926 -0.289073 -0.903459
232 1 1.6755 11.5239 14.8532 0.17887 -1.32686 0.818699
233 1 3.30735 9.96749 13.1487 -1.85515 0.201246 2.68345
234 1 5.03346 11.5416 14.8195 1.64002 -1.16998 2.49013
235 1 6.53735 9.92424 13.1547 -1.38443 0.229911 1.42939
236 1 8.27605 11.5126 14.8383 0.0901101 1.74302 0.953221
237 1 9.95778 9.89463 13.2687 -0.437695 0.499508 0.263279
238 1 11.6356 11.4847 14.8998 -1.82603 -1.0342 -0.219721
239 1 13.2497 9.95976 13.2044 0.59565 1.85259 0.151765
240 1 14.883 11.4943 14.9735 0.381893 -1.50023 -0.423205
241 1 0.11721 13.2585 13.2408 -0.819618 -0.242935 -0.545413
242 1 1.64597 14.9043 14.8994 -1.56497 0.08649 0.54893
243 1 3.31058 13.1829 13.2973 -0.865994 -1.33892 0.660911
244 1 4.87013 14.9055 14.9243 0.330402 -1.41923 -1.28696
245 1 6.67321 13.3164 13.1917 0.558728 -0.862229 1.17824
246 1 8.27406 14.9235 14.881 -0.50586 1.71448 -0.792296
247 1 9.99958 13.203 13.3306 1.13157 -1.97312 -0.404162
248 1 11.6158 14.8879 14.8659 -0.605348 -0.595161 -0.74983
249 1 13.3486 13.1994 13.3527 0.957199 -0.953064 1.18886
250 1 14.9119 14.8357 14.9762 0.186801 0.165393 -0.519864
