ITEM: TIMESTEP
840
ITEM: NUMBER OF ATOMS
250
ITEM: BOX BOUNDS pp pp pp
0.0000000000000000e+00 1.6520000000000000e+01
0.0000000000000000e+00 1.6520000000000000e+01
0.0000000000000000e+00 1.6520000000000000e+01
ITEM: ATOMS id type x y z vx vy vz
1 1 16.4537 0.0446514 0.149026 0.160108 -0.971702 -0.91389
2 1 1.56418 1.58392 1.74572 -0.672254 -0.550003 0.579521
3 1 3.26061 16.4673 0.0302909 -0.282634 1.20329 -2.23853
4 1 5.00376 1.65914 1.71686 -0.660617 -0.547804 0.224224
5 1 6.55617 0.0159401 16.5047 -1.69974 0.517754 1.3811
6 1 8.32654 1.54041 1.65255 0.219467 0.86634 0.321355
7 1 9.91784 16.4204 16.4547 -1.20787 2.17952 -0.0373168
8 1 11.5507 1.48859 1.70084 0.522867 -0.159706 1.23253
9 1 13.2341 16.4802 0.0649112 -2.14479 0.105399 -0.476482
10 1 14.7685 1.66172 1.83855 -2.16385 0.613755 -0.630029
11 1 16.4421 3.31555 0.017717 0.963564 0.828078 -1.56017
12 1 1.60596 4.83913 1.6579 0.980463 -1.60715 -1.01448
13 1 3.2833 3.35074 16.4453 -0.421681 -0.915659 0.192628
14 1 5.03346 4.99145 1.53112 2.27827 0.00358508 0.118429
15 1 6.68005 3.24287 16.4741 -0.667631 -0.909414 2.61845
16 1 8.32333 4.91576 1.62958 -0.499041 0.424892 0.694798
17 1 9.90765 3.22634 0.0503131 0.566324 -0.213408 -0.86018
18 1 11.4501 4.8876 1.81853 1.98226 -0.145351 -2.49764
19 1 13.0972 3.30442 0.0881175 0.383777 -0.00984108 -0.967526
20 1 14.7978 4.99229 1.73346 -1.24947 1.29011 0.357974
21 1 0.0141573 6.54868 16.4929 0.530706 -0.510835 0.528618
22 1 1.5407 8.26516 1.61922 0.296737 0.343869 0.0997385
23 1 3.37898 6.51447 16.4695 -0.411942 2.13202 0.144823
24 1 4.87747 8.25459 1.65221 0.587344 -0.474625 1.36817
25 1 6.65998 6.67826 16.4374 0.454208 0.0890443 0.634862
26 1 8.2105 8.36875 1.51844 0.725798 -0.47171 0.881431
27 1 9.94105 6.61818 16.5125 -0.217352 0.246697 -2.21213
28 1 11.5249 8.26887 1.61068 0.469882 0.0139042 2.15941
29 1 13.2028 6.60785 16.4767 1.10932 -1.50949 2.0052
30 1 14.9018 8.21094 1.60291 -2.69433 0.284199 1.93411
31 1 16.4998 9.78693 16.3657 0.141181 -0.614468 -1.1197
32 1 1.51048 11.4631 1.59296 3.39762 1.29674 0.686101
33 1 3.26973 9.95293 16.4676 0.536518 -0.436225 1.88618
34 1 4.98204 11.5343 1.62062 1.50218 -0.447361 0.735425
35 1 6.57549 9.85837 16.4997 -0.58844 -0.389026 -0.52392
36 1 8.17777 11.5624 1.6911 0.959674 -0.429355 -2.99418
37 1 9.86974 9.99881 16.4263 -0.21777 -2.74793 0.354396
38 1 11.4834 11.5222 1.7711 -0.154143 0.179433 -0.481832
39 1 13.2117 9.84424 0.0790312 -1.56999 -2.07003 -0.769182
40 1 14.877 11.6195 1.60583 0.100331 2.04237 -0.431297
41 1 0.0164851 13.166 16.4772 -0.81873 0.224341 0.198786
42 1 1.67987 14.7771 1.73206 0.684841 -1.05096 -2.37102
43 1 3.33063 13.1371 0.0455788 3.168 -0.407993 0.878726
44 1 4.92338 14.8669 1.59273 2.07311 -1.82702 -0.498778
45 1 6.53482 13.1856 16.4786 2.73687 -0.590216 -0.53903
46 1 8.2599 14.8069 1.59906 0.886546 1.13946 0.792763
47 1 9.91037 13.1301 0.0330089 0.417337 0.701601 0.32532
48 1 11.4814 14.8471 1.66771 0.472465 0.355339 -0.432974
49 1 13.1052 13.2115 0.0525035 -1.28924 0.578336 0.764677
50 1 14.8914 14.7323 1.67156 1.63086 1.52007 -1.18115
51 1 16.4985 16.435 3.55862 -1.95439 0.482417 -0.581888
52 1 1.66701 1.67888 5.04252 0.603235 0.925122 -0.00136546
53 1 3.28009 16.4783 3.30365 0.753406 0.906132 -0.564634
54 1 4.91697 1.6535 5.05759 -0.876466 -1.93084 1.19286
55 1 6.56387 0.0948024 3.36142 0.201216 -0.949884 -0.171018
56 1 8.26045 1.50922 4.95915 -0.451269 -1.75818 0.177031
57 1 9.97055 16.437 3.40669 -0.600586 -0.263145 -0.00935634
58 1 11.5002 1.49848 5.01319 -0.323562 0.479978 0.364514
59 1 13.1514 16.3748 3.37529 -0.00479253 -0.919861 -1.36685
60 1 14.8439 1.59313 5.12438 -1.357 -1.06529 -0.869019
61 1 0.0400234 3.23632 3.43779 1.11176 -1.00602 -1.12313
62 1 1.64486 5.00861 4.96794 -1.43085 -1.38512 -0.120625
63 1 3.28742 3.24613 3.29017 -0.783215 -0.256893 -1.05874
64 1 4.85284 4.91388 4.99592 -1.51171 0.716971 0.465307
65 1 6.60714 3.20893 3.32108 -0.789166 0.12742 -0.178931
66 1 8.26953 4.75873 4.9053 0.64867 -0.936431 0.0696403
67 1 9.82358 3.05875 3.33752 -0.53864 -0.154779 -1.05664
68 1 11.583 4.86799 5.10923 1.27932 0.45418 -0.897971
69 1 13.2513 3.2016 3.39046 1.08732 0.314551 -0.967863
70 1 14.7573 5.01322 4.97976 2.3257 0.262678 0.172508
71 1 16.4768 6.78511 3.3715 1.35229 -0.277607 -0.294826
72 1 1.71496 8.26385 4.94405 -0.624167 -1.11855 2.08202
73 1 3.42688 6.62382 3.20397 0.557159 -0.738601 0.308735
74 1 4.90445 8.3068 4.90307 -1.41078 -1.40269 1.29825
75 1 6.65452 6.53366 3.33309 0.359224 1.6382 1.09604
76 1 8.24988 8.22028 4.90977 0.246659 1.87806 -1.05223
77 1 9.82956 6.61816 3.2217 -1.19647 0.742325 0.611301
78 1 11.5163 8.25793 5.02003 -1.27511 1.62988 0.226157
79 1 13.1841 6.60706 3.33312 -1.94259 0.428197 -0.238611
80 1 14.7543 8.30674 5.01621 -0.0967662 -0.770581 0.908413
81 1 16.4258 9.85118 3.35739 0.174352 2.11397 -0.645162
82 1 1.63611 11.545 4.84855 1.09126 2.59417 0.734649
83 1 3.22946 9.92029 3.2201 -0.581384 0.4712 0.790373
84 1 4.92178 11.4954 4.95332 0.765296 0.971121 -0.477455
85 1 6.45176 9.90715 3.26553 1.09727 -0.0920187 -0.042271
86 1 8.21465 11.6035 4.84559 1.59381 -0.145112 0.223613
87 1 9.78527 9.7607 3.28441 0.676427 0.97228 0.786089
88 1 11.485 11.5603 4.98397 0.367725 -1.13751 0.298485
89 1 13.1046 9.90755 3.2718 -2.24431 1.0514 1.02456
90 1 14.816 11.5703 5.01254 0.681387 2.61922 -0.274508
91 1 16.4234 13.0628 3.37049 1.19377 -0.688191 -0.678038
92 1 1.77296 14.7492 5.08087 0.666625 -1.0302 0.717529
93 1 3.40967 13.1841 3.28815 0.578471 0.387268 0.42743
94 1 5.02892 14.9053 4.99964 3.27697 -0.941687 0.296923
95 1 6.48625 13.2677 3.27069 0.519887 0.608408 0.308511
96 1 8.28203 14.8021 5.03554 0.427878 -0.204807 0.747715
97 1 9.79692 13.2167 3.29429 0.827271 0.279359 -0.423362
98 1 11.543 14.895 5.0016 -1.47608 0.333145 1.0053
99 1 13.0927 13.1917 3.29042 1.42759 1.83544 -0.264503
100 1 14.7172 14.7953 5.15353 1.56201 -1.20909 -0.0915812
101 1 16.3943 16.4252 6.71669 -0.259489 0.375102 0.598873
102 1 1.6629 1.64838 8.40875 -2.8745 -0.789387 0.971843
103 1 3.25489 16.4902 6.66619 0.213218 -0.548578 -2.39199
104 1 4.90594 1.64287 8.28024 -0.750377 -0.116756 -0.8102
105 1 6.65811 0.00869091 6.65183 -1.59724 1.44007 0.756197
106 1 8.24497 1.76503 8.24008 -0.0718303 -0.916454 -0.21074
107 1 9.82955 0.089655 6.77693 -0.528886 0.919689 0.485163
108 1 11.6579 1.70264 8.4381 0.592735 0.926269 1.2975
109 1 13.2002 16.4578 6.72959 -0.154383 0.613265 1.43837
110 1 14.8848 1.70508 8.34554 -2.3513 -1.15135 -3.13136
111 1 0.0665978 3.26222 6.64466 -2.48298 1.01142 -0.39259
112 1 1.65238 4.98816 8.20335 0.28795 0.414264 -1.2159
113 1 3.20765 3.30213 6.70178 1.17472 0.0789027 -0.605672
114 1 4.84125 5.0255 8.22736 0.876448 1.28968 1.21979
115 1 6.53712 3.31943 6.55432 0.913803 1.51879 0.56675
116 1 8.32816 4.9018 8.17789 -0.383235 -1.66842 1.2919
117 1 9.93429 3.28765 6.60795 1.36721 0.45141 0.786754
118 1 11.6822 4.95575 8.28883 0.0579617 -0.461874 3.07525
119 1 13.2438 3.2961 6.66837 -1.67798 0.512894 1.26426
120 1 15.0436 5.07007 8.21859 0.687218 -0.957293 -1.73483
121 1 0.0509832 6.67603 6.57724 -1.23542 0.429104 -1.85297
122 1 1.68854 8.40611 8.16464 0.40538 -2.85791 0.0675294
123 1 3.38004 6.56954 6.56067 0.267525 1.61576 -1.25511
124 1 4.97887 8.27946 8.12954 0.666208 -0.796748 1.09939
125 1 6.54413 6.48814 6.51191 0.345408 -0.221882 1.9589
126 1 8.19807 8.21165 8.19908 -1.97917 -0.442929 -0.266516
127 1 9.83976 6.48516 6.47011 -1.21368 -0.815234 -1.13358
128 1 11.5144 8.28225 8.16395 -0.0115818 0.802174 1.03285
129 1 13.1586 6.65169 6.6353 2.08201 1.06702 1.66316
130 1 14.8391 8.2217 8.17469 -1.47816 0.469658 -1.17664
131 1 0.0242218 10.0477 6.56964 0.0388031 -1.11408 0.588999
132 1 1.61851 11.6635 8.31764 1.39509 -0.0271555 -0.784524
133 1 3.24094 10.0546 6.48482 0.217062 -1.06012 -0.571371
134 1 4.99136 11.5264 8.16384 -1.80258 0.521587 1.67349
135 1 6.62921 9.938 6.45176 -0.0762748 -1.62233 -0.0814918
136 1 8.26724 11.6807 8.40053 -2.67469 -2.01301 0.417244
137 1 9.70627 9.91284 6.60928 0.691938 2.08348 -0.417171
138 1 11.6064 11.6971 8.31439 -0.44056 0.672209 0.431417
139 1 13.248 9.98752 6.65582 -1.12772 -1.08052 -0.352451
140 1 14.9063 11.6503 8.24629 -0.709337 0.287349 -1.44854
141 1 0.0512148 13.181 6.65243 0.187316 -0.815212 0.736633
142 1 1.65873 14.9125 8.28625 0.708828 0.288584 -1.24644
143 1 3.33586 13.3047 6.51144 0.847951 -0.272417 -0.25022
144 1 4.93324 14.8724 8.34096 0.942882 -0.295978 -0.765797
145 1 6.66686 13.2268 6.52255 0.7521 0.796756 1.78474
146 1 8.26673 14.7984 8.38072 0.705392 -0.317793 -2.50615
147 1 9.9542 13.1909 6.69033 -0.262684 1.03367 -1.35261
148 1 11.6013 14.9368 8.27768 -0.80801 0.85792 1.06652
149 1 13.2703 13.1762 6.72219 0.907818 0.654336 -0.800677
150 1 14.8029 14.8046 8.4241 -0.252102 1.19538 -0.650145
151 1 0.0492739 0.046648 9.97711 0.656639 -2.01315 -1.65096
152 1 1.72451 1.72062 11.6736 -1.51761 -2.00244 -0.0161932
153 1 3.36759 0.0336829 9.9627 -0.173787 0.539802 -0.898828
154 1 5.00834 1.65774 11.5834 -0.685147 -1.78976 0.483338
155 1 6.61777 16.4509 9.97632 -0.258578 -0.0070982 0.279835
156 1 8.17526 1.58773 11.5248 -0.68501 1.97915 0.606984
157 1 9.93953 0.00444442 9.8753 -0.161756 -0.487663 -0.181794
158 1 11.614 1.63362 11.6503 -1.19866 0.323399 1.30208
159 1 13.2609 0.00035022 9.95015 -0.306989 1.52044 -0.414667
160 1 14.9399 1.7737 11.6078 1.63832 0.130788 0.16761
161 1 0.0951857 3.35249 9.96188 0.683356 -1.19582 0.497608
162 1 1.6876 5.12329 11.5206 -0.840186 0.898616 0.509176
163 1 3.37365 3.42343 10.001 -0.512611 0.671246 -0.392042
164 1 5.07629 5.01554 11.5208 0.554702 1.19009 -0.384478
165 1 6.52432 3.36516 9.84714 2.11954 0.326454 -0.0364998
166 1 8.31366 5.00439 11.5131 1.67241 -1.52773 0.0657504
167 1 9.96841 3.31186 10.1238 1.4954 0.709503 2.11483
168 1 11.62 4.95455 11.5109 0.338615 -0.792072 2.23337
169 1 13.3146 3.31074 10.0479 0.353388 -0.394775 2.91333
170 1 15.0257 4.98405 11.4501 1.32328 1.64254 0.202083
171 1 16.5116 6.68802 9.86226 0.73562 -1.97075 -0.365231
172 1 1.55061 8.28361 11.5072 -0.219891 0.824039 0.291198
173 1 3.29151 6.66164 9.8315 1.04787 0.0272506 0.0923464
174 1 5.00936 8.31695 11.4135 -3.5231 -0.307669 1.45606
175 1 6.56145 6.62962 9.89306 -1.46301 0.0324469 -0.558022
176 1 8.29149 8.20132 11.3726 -0.503365 -1.29873 -3.46708
177 1 9.88486 6.55818 9.77065 0.00602778 0.26744 -1.3002
178 1 11.5803 8.26689 11.4482 1.47797 -1.48079 0.147811
179 1 13.1061 6.72816 9.84082 3.46228 0.832218 -1.34503
180 1 14.8932 8.31416 11.4963 0.251947 0.359764 -0.0504201
181 1 0.0290482 9.98726 9.82573 0.875804 -0.760601 1.41657
182 1 1.77443 11.6475 11.4456 -0.0926704 -1.62334 -0.345992
183 1 3.38068 9.9514 9.73988 1.28823 -0.865358 -0.225335
184 1 4.95831 11.4214 11.4812 0.995832 -0.453883 1.64688
185 1 6.71438 9.88743 9.74376 -1.24708 1.1119 -0.091509
186 1 8.28446 11.5153 11.523 0.528887 -0.029797 -1.67574
187 1 9.95293 9.99363 9.84391 -1.7709 2.7984 1.07625
188 1 11.6388 11.6545 11.686 -0.847234 -1.04235 1.47194
189 1 13.1599 10.0061 9.81268 -0.43904 -1.23715 0.951228
190 1 14.9645 11.6627 11.5207 -1.92568 -0.68859 -1.25265
191 1 0.105473 13.3506 9.9561 1.16642 0.160507 -0.661533
192 1 1.73294 14.9272 11.6798 0.608824 -0.595033 -1.37686
193 1 3.44762 13.1732 9.83199 -0.50743 1.76212 0.687101
194 1 4.90597 14.8925 11.5979 -0.94051 -0.0122342 0.256063
195 1 6.58725 13.2406 9.90779 -0.0243098 0.0290997 -0.287832
196 1 8.22822 14.8559 11.4001 -0.757834 -1.27251 -1.14312
197 1 10.0439 13.2521 9.98643 1.16437 -1.99796 0.396644
198 1 11.7298 14.9242 11.5363 2.23696 -2.0242 -1.34018
199 1 13.1789 13.2879 9.97399 1.18242 -0.544211 -0.874519
200 1 14.9754 14.9189 11.6089 -2.0492 -1.61375 -0.786573
201 1 16.4839 16.5152 13.3048 -0.504312 0.153173 -4.70722
202 1 1.67332 1.66096 14.9472 -1.33492 0.798897 -0.139013
203 1 3.28767 0.0434197 13.3446 -1.07444 -0.588134 -0.178346
204 1 4.98664 1.63588 14.8138 -1.90769 -0.437471 -0.138789
205 1 6.70776 16.4549 13.2429 -0.7694 0.736948 -0.82728
206 1 8.31116 1.73768 14.8627 -0.228059 -1.48083 -0.0946811
207 1 9.86778 16.5041 13.17 -1.19729 -0.138297 -0.504939
208 1 11.6214 1.62597 14.9383 0.382157 -0.458174 -2.21604
209 1 13.3729 0.0620462 13.2732 -1.26998 0.0206213 -0.839807
210 1 14.8279 1.61642 14.9361 -0.218533 -1.23851 -0.259111
211 1 0.00993029 3.40464 13.2121 1.45701 -1.381 0.0675817
212 1 1.71133 4.91025 14.763 -0.434184 -0.689078 0.193314
213 1 3.38525 3.43427 13.2159 -0.242004 1.00767 1.53049
214 1 5.07591 5.00945 14.7637 -1.93042 -0.136537 -0.0805491
215 1 6.67334 3.37384 13.2165 1.02567 0.110742 0.579622
216 1 8.24369 5.01944 14.8186 1.32629 1.58549 -1.67523
217 1 9.90071 3.29661 13.2416 0.802207 -1.07248 -0.0340368
218 1 11.6459 5.07043 14.9324 0.549699 0.0844238 -2.70339
219 1 13.3607 3.25745 13.1657 -0.429518 0.706809 -0.502459
220 1 14.877 4.95923 14.9205 0.89631 1.18104 -1.43526
221 1 16.472 6.60509 13.1516 0.171602 -0.265833 -0.0588835
222 1 1.63147 8.20991 14.877 -0.530248 1.26171 1.65258
223 1 3.31418 6.67202 13.1501 -0.418942 1.60316 -0.659068
224 1 4.93389 8.25366 14.8276 -0.117474 -1.48396 0.433291
225 1 6.60696 6.59189 13.1408 -2.80682 0.592426 0.203763
226 1 8.24262 8.35725 14.7965 -2.43009 -2.01068 1.00609
227 1 9.92012 6.79008 13.1676 0.178184 -0.903043 1.69596
228 1 11.509 8.2985 14.7801 2.1667 2.50705 1.55534
229 1 13.2805 6.65409 13.0834 0.887695 0.101317 -0.687281
230 1 14.8314 8.17256 14.8056 -0.787219 1.38329 0.586795
231 1 16.4981 9.90786 13.0627 -0.762627 1.22391 1.57289
232 1 1.6772 11.6051 14.7088 0.323136 0.100359 1.92224
233 1 3.37717 9.88499 13.0833 0.917372 0.0866448 2.05596
234 1 4.97068 11.4495 14.7036 1.08686 2.11765 1.83899
235 1 6.61018 9.8211 13.0727 -1.1262 0.0281779 -0.235957
236 1 8.20208 11.5161 14.7773 -0.863608 -0.698421 -0.831556
237 1 9.88896 9.99328 13.2103 -2.62049 1.04986 -0.274868
238 1 11.6046 11.5385 14.8258 -2.77743 0.632531 0.788306
239 1 13.1614 9.96457 13.1595 0.466396 0.902713 0.158466
240 1 14.8313 11.5604 14.9098 -1.3708 0.316571 -0.492044
241 1 0.126635 13.2237 13.2688 -1.79801 -0.528571 -1.09351
242 1 1.69177 14.849 14.9483 -1.05131 -1.07064 -0.663634
243 1 3.3897 13.1773 13.1011 1.14727 -0.439606 0.874691
244 1 4.98609 14.8427 14.9947 1.68767 0.856671 1.49728
245 1 6.55044 13.1563 13.2317 0.0414611 0.580981 0.178969
246 1 8.22661 14.8388 14.9118 0.852169 0.0513609 -0.405792
247 1 9.93346 13.2728 13.2136 -0.376025 0.358933 -0.317934
248 1 11.5403 14.9025 14.8726 1.30983 1.14796 0.934324
249 1 13.2483 13.276 13.2026 1.05399 -2.51613 -0.3032
250 1 14.8808 14.9202 15.0142 0.0142784 0.164295 -0.209395
