ITEM: TIMESTEP
570
ITEM: NUMBER OF ATOMS
250
ITEM: BOX BOUNDS pp pp pp
0.0000000000000000e+00 1.6520000000000000e+01
0.0000000000000000e+00 1.6520000000000000e+01
0.0000000000000000e+00 1.6520000000000000e+01
ITEM: ATOMS id type x y z vx vy vz
1 1 16.4683 16.4161 16.5093 1.20007 3.10177 1.03448
2 1 1.70145 1.5228 1.55969 0.11735 0.267348 -1.2031
3 1 3.33411 0.0202269 16.3697 0.265558 1.63064 0.916389
4 1 5.03287 1.66511 1.70705 1.01997 3.01848 -1.04817
5 1 6.6981 0.0892594 16.4729 1.53456 0.639708 0.219573
6 1 8.33732 1.6127 1.61573 2.25616 -0.36591 -1.79456
7 1 9.94273 0.0119169 16.4012 0.0412011 2.10882 -1.65886
8 1 11.614 1.71547 1.48221 -0.290515 -0.624141 -0.852711
9 1 13.2432 16.404 16.4545 -0.75744 2.80838 0.962654
10 1 14.8631 1.5802 1.5655 -0.736175 -0.708324 -0.404738
11 1 16.4389 3.33883 0.0237114 -1.56083 1.16779 -0.165505
12 1 1.64258 4.95381 1.76679 0.143556 0.143108 0.61211
13 1 3.24868 3.30225 16.4501 0.398545 -0.372618 0.233339
14 1 4.91634 4.90274 1.70248 1.98646 -0.595829 -1.08264
15 1 6.58648 3.30378 0.0278407 0.9621 -1.10487 -3.59792
16 1 8.28494 4.9331 1.74232 0.87497 0.501213 -1.02422
17 1 9.891 3.37535 16.3241 1.84722 0.2985 -0.330267
18 1 11.5628 4.94033 1.67096 -0.371829 1.87009 2.18677
19 1 13.3117 3.29653 16.3905 -2.27413 -0.147887 0.00901216
20 1 14.833 5.05596 1.69679 1.34755 0.495925 -1.17697
21 1 0.00207371 6.71149 0.158707 0.475808 -1.92093 -1.33459
22 1 1.63439 8.43448 1.63519 1.48156 -1.51897 0.363197
23 1 3.19258 6.58323 16.4977 0.936643 0.840205 0.16807
24 1 5.0844 8.23833 1.70016 -0.945471 -0.0564593 0.574311
25 1 6.62028 6.55892 0.0146804 0.508704 1.16767 2.29658
26 1 8.24492 8.26031 1.7461 -0.903723 1.11592 2.73703
27 1 9.88343 6.56829 0.101107 -1.72633 -0.341058 1.22696
28 1 11.6612 8.38937 1.69181 0.137326 1.36913 -0.863476
29 1 13.1643 6.71704 0.0145811 -0.563498 0.439674 -2.39787
30 1 14.7908 8.30631 1.68274 1.37413 1.00639 0.0208147
31 1 16.501 10.0621 0.0164699 1.1251 -0.551783 0.395312
32 1 1.72744 11.6755 1.79149 -1.46462 0.839368 -1.87529
33 1 3.35573 9.98999 0.118421 1.47388 0.590659 -0.198386
34 1 5.03154 11.5266 1.74076 1.46546 1.81892 0.122755
35 1 6.70882 9.87557 0.169448 -0.157698 -0.987947 1.86473
36 1 8.37243 11.585 1.67231 -0.471229 -1.45654 0.621136
37 1 9.83708 9.95281 0.0196529 1.0825 0.525702 1.3326
38 1 11.5667 11.5979 1.66028 -1.21625 -0.890288 0.395532
39 1 13.2039 9.94744 0.0587307 -0.928548 0.271941 0.528699
40 1 14.7613 11.5999 1.69 -1.39157 -0.488203 0.235089
41 1 16.4543 13.1927 16.4714 0.643593 -1.09894 -0.45884
42 1 1.66674 14.9675 1.64988 -0.315722 -0.355443 0.0654871
43 1 3.37139 13.1679 16.4949 0.791619 0.58738 0.990061
44 1 5.01954 14.8925 1.63874 0.976625 1.48471 -0.196409
45 1 6.64657 13.2086 16.5149 0.937027 0.25005 1.62307
46 1 8.2345 14.9022 1.57857 -0.729882 2.0016 1.04166
47 1 9.84585 13.3114 0.0146527 0.239343 0.216942 0.748085
48 1 11.5189 14.9904 1.60077 -2.12915 -1.03001 -3.45387
49 1 13.0594 13.2718 16.4288 0.232583 1.18809 -1.17105
50 1 14.836 14.9126 1.62542 -0.561975 -0.221896 0.159892
51 1 16.4708 16.5118 3.29326 2.19605 -1.1649 0.244593
52 1 1.71047 1.57433 4.9045 0.276256 -1.4749 1.25909
53 1 3.34309 0.0302917 3.2614 -1.38293 -1.44072 0.442727
54 1 5.04518 1.65716 4.95005 0.301939 1.11271 0.292032
55 1 6.75286 0.00315338 3.28334 -0.897218 0.969334 -1.37226
56 1 8.34749 1.64279 5.11517 1.79481 -0.609281 0.169776
57 1 9.95152 0.10377 3.36728 1.20681 -0.281067 -0.356308
58 1 11.534 1.72453 4.97293 -1.03273 -1.85949 -0.615817
59 1 13.1736 0.0860764 3.32608 1.40233 -0.205994 -0.493894
60 1 14.91 1.5598 4.99245 0.961064 1.18956 -2.00677
61 1 16.4785 3.35365 3.31426 1.6981 1.13086 0.319227
62 1 1.63929 4.96741 4.92091 0.593725 0.283477 -0.0389142
63 1 3.32475 3.2057 3.31069 0.467067 -0.7935 -0.88367
64 1 4.93791 4.88862 5.01452 -1.65305 -0.39479 0.00261641
65 1 6.64223 3.3256 3.30072 1.02016 0.173255 -0.922677
66 1 8.29452 4.96484 5.02154 -0.192413 1.36365 -1.62805
67 1 9.92903 3.30832 3.40084 1.58203 0.261832 -1.34568
68 1 11.5921 4.89189 4.90956 1.51144 -0.215174 -0.489395
69 1 13.1825 3.20111 3.25759 0.369845 0.824182 0.654683
70 1 14.8589 4.92357 5.02002 1.02675 -0.973416 -1.07988
71 1 0.00044426 6.6409 3.34493 0.305742 -0.725668 0.783139
72 1 1.66468 8.32231 4.90697 0.16077 -0.772184 0.336564
73 1 3.27779 6.59571 3.3402 -1.03527 -0.959674 -0.553601
74 1 5.09885 8.26046 5.02066 0.650361 -0.218552 -0.193396
75 1 6.58674 6.48866 3.37985 -0.670798 0.0985412 2.4681
76 1 8.27916 8.23233 5.22648 -0.0965156 -1.63232 1.03475
77 1 9.89774 6.67442 3.43161 0.836525 0.647827 1.97667
78 1 11.4501 8.24341 5.04124 1.81542 1.20086 1.05984
79 1 13.1366 6.66725 3.35727 2.16093 -0.277717 -0.402783
80 1 14.8889 8.35373 5.01365 0.753088 -0.850924 -0.444258
81 1 0.0107132 9.96961 3.44307 0.255074 -0.640141 -0.645984
82 1 1.68142 11.6279 4.87384 -1.18541 0.751085 -0.452836
83 1 3.38333 9.92183 3.39883 1.56227 1.40508 -0.215692
84 1 5.0254 11.5145 5.01859 0.840269 0.803809 -0.298145
85 1 6.70119 9.96538 3.37107 1.03647 0.862196 1.38477
86 1 8.35455 11.6394 4.99707 -0.211589 0.0163303 -1.47576
87 1 9.98197 9.92047 3.34649 -2.66609 1.18793 -1.16546
88 1 11.5024 11.6403 4.97542 -0.908027 -0.083888 -0.0470921
89 1 13.2199 9.91838 3.31405 -0.182855 2.87029 -2.29786
90 1 14.7962 11.6215 4.95432 0.660813 0.322892 0.9102
91 1 16.4485 13.2849 3.26843 -1.20844 2.69814 1.58091
92 1 1.65865 14.9313 4.85376 -1.61096 2.00528 -0.414908
93 1 3.48257 13.2303 3.33578 0.0799612 -0.69349 -0.19186
94 1 5.04093 14.9418 4.92032 -0.638103 0.255383 0.324693
95 1 6.72438 13.2721 3.26357 3.24916 1.18593 -0.525257
96 1 8.27775 14.8923 5.04065 0.455311 -0.434074 -0.874408
97 1 9.77759 13.3107 3.28808 0.608124 1.82933 -1.63024
98 1 11.5117 14.8801 5.0738 -0.678693 -0.454334 -0.378637
99 1 13.0578 13.2539 3.29291 -3.63644 -0.660395 -1.93172
100 1 14.8525 14.8614 4.99129 -1.34716 -0.536459 0.188692
101 1 0.0222424 16.4425 6.56981 0.163003 0.589459 -1.97813
102 1 1.70635 1.71713 8.30149 -0.000514904 -1.84842 -1.76182
103 1 3.43934 0.0763774 6.52263 -0.902836 0.690037 -0.851428
104 1 4.95382 1.6539 8.20537 -1.0754 0.286136 -0.663514
105 1 6.65569 0.0557285 6.72457 0.978217 0.159314 0.354642
106 1 8.23745 1.70821 8.321 -1.07273 2.24337 0.819497
107 1 10.0686 0.0383528 6.7851 -0.663175 1.69725 0.219306
108 1 11.6788 1.60932 8.36115 1.43471 1.30161 0.51086
109 1 13.2162 16.5188 6.69267 -0.346383 0.934397 -2.7641
110 1 14.9325 1.66371 8.25561 0.526887 -1.22639 -0.979473
111 1 0.0618375 3.25057 6.52847 0.791133 0.0788469 1.14454
112 1 1.5473 4.8541 8.2773 -1.39748 -0.835766 -2.37239
113 1 3.18675 3.15276 6.57066 -1.19555 0.774138 0.0597751
114 1 4.78201 4.95746 8.22861 -3.29512 0.578643 0.681968
115 1 6.62137 3.34375 6.66963 -0.0863723 -0.687325 -0.137924
116 1 8.24671 4.87773 8.3966 0.250452 1.6147 0.640207
117 1 10.027 3.36373 6.62934 0.235184 1.15641 -0.337189
118 1 11.5831 4.95937 8.30565 0.495822 -1.25968 0.554566
119 1 13.2604 3.21461 6.58883 0.825804 0.897898 -1.53424
120 1 14.826 4.9416 8.33511 1.36067 -2.45105 1.12022
121 1 0.0059428 6.61403 6.6212 -0.424896 0.123916 2.19327
122 1 1.67162 8.36364 8.14175 -0.774713 1.96086 0.167572
123 1 3.35411 6.65458 6.53604 1.51031 1.66714 -0.714393
124 1 4.90405 8.18346 8.20316 -0.964324 0.0324944 -0.79257
125 1 6.57529 6.46491 6.64008 1.93536 -1.60319 1.70433
126 1 8.30354 8.18004 8.34702 0.1491 -0.229111 -0.261719
127 1 9.95558 6.53467 6.75892 1.61946 -1.37339 -3.31248
128 1 11.516 8.23949 8.31969 -1.49684 -1.03933 -0.814847
129 1 13.2048 6.65627 6.65185 -0.104394 -0.0410705 1.04465
130 1 14.9296 8.32256 8.2608 0.824958 -1.19092 -0.487937
131 1 0.0358167 10.042 6.52156 1.37907 -0.754762 -0.672598
132 1 1.61571 11.5269 8.23123 -0.842393 0.975051 -0.286851
133 1 3.30438 10.042 6.58207 0.495709 -1.21433 -0.187245
134 1 4.94713 11.5477 8.2489 0.98792 -1.45246 -1.67895
135 1 6.64084 9.88384 6.67583 0.443114 -1.03313 -0.442225
136 1 8.2315 11.5707 8.2823 0.919347 -0.0198908 1.52426
137 1 9.94425 9.98098 6.67319 -1.60494 -1.01694 2.59013
138 1 11.5957 11.5624 8.23974 -0.823432 0.29168 1.44638
139 1 13.2026 9.95001 6.66998 0.314421 -0.0838895 0.489647
140 1 14.9559 11.608 8.22573 -2.41427 0.330421 -1.90041
141 1 0.027529 13.2033 6.58864 -0.717153 1.21521 0.643639
142 1 1.70255 14.7761 8.08039 0.531546 0.240367 -1.10145
143 1 3.51918 13.1771 6.58064 0.239537 0.514283 -1.07516
144 1 4.88357 14.7376 8.28047 1.24915 -1.2295 -0.47141
145 1 6.52867 13.2142 6.68449 1.19156 -0.164934 -0.7285
146 1 8.22856 14.8527 8.28971 0.411006 0.726323 -0.146951
147 1 9.92372 13.2692 6.66112 1.2971 -1.12834 -1.0477
148 1 11.5676 14.7934 8.35959 1.70669 0.00805731 -1.12185
149 1 13.0239 13.2518 6.49302 0.135841 -0.699425 -0.088924
150 1 14.858 14.6907 8.21426 -0.877389 0.125471 -0.561857
151 1 16.5086 16.344 9.85596 -1.36689 0.61962 0.669534
152 1 1.64717 1.52639 11.4683 -1.9721 -0.331587 -0.0556349
153 1 3.3017 16.4836 9.81515 -0.292793 0.291929 -0.160007
154 1 4.85519 1.63516 11.4681 -2.13316 0.0753755 1.85196
155 1 6.5872 0.0731463 9.76993 0.314343 0.827041 0.80961
156 1 8.0787 1.66943 11.5629 0.729019 -0.714997 -4.04761
157 1 9.91722 16.4428 9.93402 -0.514028 1.5198 -0.547258
158 1 11.654 1.61107 11.4519 -1.09848 0.00936918 0.770983
159 1 13.2805 16.4298 9.77268 -0.0808764 1.31427 -0.590119
160 1 14.9181 1.56461 11.5157 -1.82748 -0.185898 -0.892383
161 1 16.5154 3.38144 9.98825 -0.369015 0.381978 0.950886
162 1 1.56579 5.00564 11.6359 -3.00187 -0.110286 0.747972
163 1 3.15909 3.29865 10.0238 -0.733297 -0.704429 1.87216
164 1 4.72501 4.9382 11.6195 -0.358684 -0.310729 2.5252
165 1 6.49145 3.37144 9.94318 -2.1359 -0.0906321 0.907212
166 1 8.06559 4.98186 11.5838 -1.12553 0.250877 1.45067
167 1 9.87274 3.30035 10.0229 0.354711 -2.88587 1.55602
168 1 11.5552 5.04171 11.4957 -0.713277 1.05132 -0.131739
169 1 13.2639 3.33737 9.86059 1.39127 1.02728 -0.0695042
170 1 14.8308 5.0652 11.5238 0.188575 -0.469134 -0.0742942
171 1 0.0327889 6.64167 9.74038 -0.0112496 1.10396 0.812749
172 1 1.64923 8.32199 11.5261 -1.30779 -0.427033 -0.0212287
173 1 3.23094 6.55442 9.90996 -2.09266 -0.532416 0.399705
174 1 4.92887 8.3091 11.5161 -1.41839 -2.12951 0.855818
175 1 6.51934 6.59115 10.0075 -0.408677 -0.946124 1.08068
176 1 8.12199 8.20368 11.5962 1.91222 -1.25286 1.39576
177 1 9.91727 6.68501 10.0156 -0.642354 -1.50902 0.468669
178 1 11.5293 8.23541 11.5731 -1.07019 -2.39626 -0.251964
179 1 13.2902 6.71241 9.9253 -0.689507 -0.974937 1.38992
180 1 14.9311 8.23121 11.5379 -1.00316 1.11801 0.900803
181 1 0.12383 9.95929 9.73794 -0.380159 1.05861 -0.802624
182 1 1.7266 11.4555 11.5683 1.87813 -0.329379 -0.503488
183 1 3.28035 9.91699 9.83851 0.877148 -1.5164 1.24874
184 1 4.89814 11.5433 11.4832 -0.298935 -1.20164 -0.971965
185 1 6.58979 9.81248 9.81445 0.155011 -1.18358 1.41165
186 1 8.10029 11.4761 11.6398 -1.73688 0.952686 1.34386
187 1 9.93013 9.91365 10.0081 -0.338473 -0.63071 2.76219
188 1 11.5351 11.5255 11.4838 3.12412 -1.54861 1.86494
189 1 13.2345 9.84575 9.83494 0.66578 -0.330265 -0.451122
190 1 14.9171 11.566 11.524 0.951877 0.54894 -1.42186
191 1 0.00306346 13.159 9.90303 2.22552 -0.241445 0.170498
192 1 1.71484 14.7616 11.442 -0.274728 -2.42476 -0.479582
193 1 3.28014 13.1687 9.9806 -0.0157707 -1.25494 -1.11304
194 1 4.90282 14.8341 11.5248 0.144371 -0.177189 0.658164
195 1 6.58624 13.2411 9.92349 -0.518735 -0.63351 0.540559
196 1 8.24678 14.8964 11.6993 1.73088 -0.952282 -3.32848
197 1 9.69582 13.1805 9.94133 -1.37569 0.352762 1.15957
198 1 11.5665 14.8528 11.4019 0.31223 2.05146 -0.508723
199 1 13.215 13.1841 9.85422 -0.766287 -2.02987 -0.56717
200 1 14.7605 14.7845 11.4561 1.53871 -2.14185 -0.55016
201 1 0.0420455 16.2917 13.1672 -0.146967 -0.456893 0.576082
202 1 1.55812 1.61492 14.7687 -0.907035 0.774785 -0.0744196
203 1 3.38269 16.4335 13.2818 -1.13143 -0.850593 1.41676
204 1 5.00608 1.64592 14.8572 -0.197593 -0.258188 0.024564
205 1 6.59071 0.0486738 13.1766 2.79064 -1.4033 -1.0585
206 1 8.29705 1.66373 14.7243 -0.606079 0.0778744 -1.35746
207 1 9.97051 16.4913 13.1479 -1.74041 0.354371 -1.75379
208 1 11.5451 1.66729 14.8013 1.56152 -0.369507 -0.601878
209 1 13.2953 16.4061 13.1866 -0.163144 1.72939 -2.64604
210 1 14.9301 1.60149 14.8117 -1.49771 1.16432 -0.455361
211 1 16.4536 3.31904 13.0977 -2.22066 -0.844531 0.300385
212 1 1.55137 4.99861 14.8702 -1.37609 -0.475106 -0.443246
213 1 3.21618 3.25469 13.106 1.04033 1.23899 0.416315
214 1 4.8842 4.9423 14.9608 -0.219393 0.290283 0.943699
215 1 6.4245 3.37926 13.1763 -0.803392 -0.968496 0.672056
216 1 8.24472 5.00625 14.8408 0.882093 -1.49742 0.430527
217 1 9.89819 3.32896 13.1029 -1.42495 -0.0621974 1.71273
218 1 11.5713 4.93642 14.7375 -0.32361 -0.797132 -0.661359
219 1 13.2877 3.25985 13.0571 1.2422 -1.15381 -0.429769
220 1 14.9101 5.07147 14.8412 -0.639451 -0.694118 -1.11412
221 1 0.0328446 6.65591 13.2822 -0.0294924 0.491067 -0.0213881
222 1 1.60617 8.3187 14.9191 -0.766125 -1.06193 -0.0464746
223 1 3.35322 6.74945 13.2116 -0.494747 -1.06772 -0.573919
224 1 5.0453 8.18957 14.9563 -0.842155 -0.142245 2.51761
225 1 6.63028 6.62955 13.3224 -1.62065 1.59249 1.29404
226 1 8.27834 8.24735 14.8656 -0.839711 0.875123 1.44859
227 1 9.90074 6.6424 13.3141 -2.59924 2.2522 0.020984
228 1 11.4937 8.29652 14.9015 0.626687 0.0817849 0.203209
229 1 13.2344 6.63546 13.2845 1.08863 -0.367984 -0.201999
230 1 14.9054 8.30523 14.9323 0.573733 -1.42632 -0.501354
231 1 0.152743 9.96903 13.222 2.06142 0.479448 0.308814
232 1 1.73467 11.5745 14.9658 1.25069 -0.900383 -1.55412
233 1 3.29108 9.8545 13.3416 -0.115781 -0.47272 -0.104395
234 1 5.03036 11.4427 14.8995 -0.341407 -1.62109 0.22253
235 1 6.54904 9.88923 13.234 -1.42495 -0.804984 0.911714
236 1 8.29981 11.5235 14.8185 1.09857 -0.210942 2.32297
237 1 9.85447 9.81136 13.1428 1.35848 0.100843 2.87228
238 1 11.5033 11.5296 14.8363 1.12639 2.45303 1.19799
239 1 13.2711 9.89781 13.2108 -0.478948 0.0613048 1.69773
240 1 14.9466 11.5287 14.8078 -1.22063 0.558162 0.6498
241 1 0.10304 13.1306 13.1027 -0.00875085 -2.03964 0.889194
242 1 1.69184 14.8169 14.9291 -0.40505 -0.981076 1.99855
243 1 3.315 13.1673 13.2195 -0.132237 0.930143 0.664984
244 1 5.00951 14.846 14.7686 -1.20295 -0.170829 -0.0737661
245 1 6.50711 13.18 13.1766 -1.38897 -2.52998 0.809848
246 1 8.24571 14.8315 14.8428 -0.581576 1.54805 -0.449904
247 1 9.79603 13.2103 13.0558 0.825952 0.15298 0.652777
248 1 11.52 14.8716 14.7263 -0.488713 -0.942989 -0.638964
249 1 13.2226 13.1584 13.2 0.837745 1.02675 0.188617
250 1 14.8144 14.7948 14.8499 1.28669 -0.303409 -1.72872
