ITEM: TIMESTEP
80
ITEM: NUMBER OF ATOMS
250
ITEM: BOX BOUNDS pp pp pp
0.0000000000000000e+00 1.6520000000000000e+01
0.0000000000000000e+00 1.6520000000000000e+01
0.0000000000000000e+00 1.6520000000000000e+01
ITEM: ATOMS id type x y z vx vy vz
1 1 0.122361 16.4001 16.4761 -2.09208 -1.46484 -1.54936
2 1 1.65547 1.64921 1.7018 -0.238983 0.328421 -1.14315
3 1 3.2546 16.4813 16.491 0.748576 -0.192785 -2.64442
4 1 4.83175 1.70038 1.64779 -1.22611 1.12682 1.41263
5 1 6.55743 16.4417 0.0225918 1.02424 -0.381939 -2.11949
6 1 8.23965 1.73884 1.64914 0.884777 0.547913 0.844085
7 1 9.91843 16.4717 0.0822817 1.24626 -1.05845 -0.94194
8 1 11.534 1.59802 1.65273 0.162642 0.0172 -2.75463
9 1 13.3092 16.4281 16.4817 -1.53176 -0.767801 -0.668096
10 1 14.8719 1.63157 1.66293 -1.65766 -0.986246 -1.07781
11 1 0.0441423 3.24471 0.080638 1.01722 -0.171843 0.00876097
12 1 1.56052 4.98328 1.66456 0.621017 -0.536136 1.39176
13 1 3.26402 3.33106 0.00243388 -2.15739 -1.46673 -0.557821
14 1 4.82422 4.93659 1.64256 0.179067 -1.36786 3.19618
15 1 6.52027 3.2598 16.5167 -0.522695 -0.322452 1.55552
16 1 8.1674 4.92584 1.53825 0.668048 -0.829 -0.175867
17 1 9.86633 3.2997 0.0448832 -0.819479 2.14269 -0.724642
18 1 11.4551 4.98186 1.59518 2.11071 -0.516647 0.00153847
19 1 13.2675 3.25781 16.4768 1.11418 -0.010956 -1.82305
20 1 14.7366 4.88018 1.65415 -2.28415 -0.359396 -0.38755
21 1 16.4871 6.64258 0.0701042 -2.29428 2.21921 0.717945
22 1 1.61573 8.3349 1.64831 -0.485581 1.36523 2.32727
23 1 3.34475 6.72982 0.0531601 -1.18623 1.35752 -0.757262
24 1 4.96115 8.34528 1.68701 1.41902 -0.442317 0.0845338
25 1 6.53851 6.65088 16.5103 1.98924 0.237278 1.03219
26 1 8.20189 8.1763 1.70069 3.05571 -0.114674 -1.02902
27 1 9.93245 6.71102 16.4073 0.0707816 -1.24529 -0.360979
28 1 11.6201 8.28011 1.67466 -0.176523 -1.1316 0.547791
29 1 13.2954 6.58838 16.5105 0.220182 0.034533 1.91553
30 1 14.8077 8.24094 1.60215 -0.132088 1.64376 0.692509
31 1 0.047097 10.0182 0.00601113 -0.387673 1.04139 2.15595
32 1 1.66173 11.61 1.62108 0.134924 2.61749 1.58317
33 1 3.43275 10.0613 0.0327057 0.879774 0.817042 2.18369
34 1 5.00248 11.5956 1.6029 -0.213183 0.751452 0.700683
35 1 6.6681 9.89863 16.4641 0.349112 -1.78496 -0.479081
36 1 8.36582 11.5015 1.68058 2.43908 -0.954182 0.578478
37 1 9.98385 9.6961 16.5098 -0.624797 -0.543161 -0.982267
38 1 11.5423 11.5479 1.69088 1.48454 1.51992 1.01681
39 1 13.2763 9.97427 16.486 -0.93945 -0.935542 0.32341
40 1 14.803 11.5969 1.68193 2.42955 0.833169 -0.943614
41 1 0.0428118 13.259 16.4799 1.17248 -1.41812 -0.866263
42 1 1.61308 14.7432 1.72725 0.0275984 -1.39012 -1.37923
43 1 3.39766 13.2321 16.4268 1.32124 1.20315 -0.448935
44 1 4.96113 14.8638 1.70355 1.72473 -1.56407 -0.590387
45 1 6.60277 13.2103 0.0180145 -0.285724 1.69129 -0.998928
46 1 8.28908 14.9181 1.70039 -0.310157 1.53755 0.35967
47 1 9.96428 13.1556 0.029882 -0.362667 -0.167074 -1.97766
48 1 11.6015 14.8702 1.67923 2.04946 2.6027 -0.564945
49 1 13.1279 13.2586 0.0596678 0.0506493 0.397724 -0.20212
50 1 15.0166 14.7857 1.66396 -0.594738 0.877725 -0.0839879
51 1 0.0572178 0.0587618 3.31716 -1.55991 -0.735865 -2.65847
52 1 1.78806 1.72984 4.96239 -0.510355 0.0135397 0.27937
53 1 3.30223 0.0463225 3.3209 0.941607 2.06434 -0.906032
54 1 4.93083 1.60997 4.99497 1.53086 0.190265 -0.863614
55 1 6.6026 0.0500084 3.42869 0.367558 0.451445 -0.59673
56 1 8.22989 1.68687 5.01594 0.112358 -1.33003 0.430274
57 1 9.97083 0.0903205 3.42188 0.88268 3.19816 0.704261
58 1 11.5609 1.63339 4.97462 0.440033 0.494558 -0.956949
59 1 13.175 16.4603 3.22336 -0.187868 -0.19118 -0.480276
60 1 14.7699 1.65142 4.908 -0.0941276 1.0817 -0.914624
61 1 16.4561 3.3455 3.40314 0.137867 -0.84865 -0.657073
62 1 1.53989 4.96019 5.01229 0.437607 -0.894551 -0.027418
63 1 3.3051 3.30746 3.31955 -1.63788 -1.33752 -0.142691
64 1 4.90556 4.98472 4.96043 -0.349517 -1.48396 0.760994
65 1 6.48024 3.26618 3.32855 0.610728 0.205584 1.04868
66 1 8.17196 4.82254 5.06089 1.53994 0.231661 2.05278
67 1 9.89442 3.38694 3.36952 -0.553083 -0.458176 -0.293254
68 1 11.4631 4.96439 5.07012 -0.190366 -1.76447 0.982522
69 1 13.1278 3.25083 3.25248 0.627529 -1.4262 0.508049
70 1 14.6768 4.97441 4.9895 -0.245329 -0.181338 -0.629042
71 1 16.4526 6.63914 3.26542 -2.01634 1.66096 -1.03122
72 1 1.75316 8.24278 4.95056 0.155967 0.51324 -0.980516
73 1 3.23026 6.63358 3.30255 -0.25648 0.935189 0.38339
74 1 4.99909 8.18832 4.89017 0.910215 -0.355612 -1.08387
75 1 6.60419 6.55828 3.26356 2.13527 -0.707983 -0.555929
76 1 8.2645 8.26439 4.9325 -0.725202 0.420508 0.665975
77 1 9.83609 6.602 3.26816 -1.95098 -1.6199 0.879581
78 1 11.5202 8.18623 4.99189 -0.777325 -0.112938 1.8869
79 1 13.0812 6.58083 3.31365 -1.19939 -0.86398 0.685274
80 1 14.9166 8.30959 4.95034 -1.49232 1.38217 1.25003
81 1 16.5064 9.93575 3.29596 -0.954068 -0.0826674 0.647218
82 1 1.64879 11.4947 5.02306 1.82071 1.03905 -0.688006
83 1 3.29245 9.87567 3.34485 0.712794 0.192382 1.34182
84 1 5.08052 11.5094 4.93972 0.74524 0.119348 0.171532
85 1 6.64172 9.94524 3.27987 2.11557 -0.725894 0.605786
86 1 8.30262 11.5443 4.94371 3.05002 0.356997 1.48516
87 1 9.97685 9.91973 3.37893 -1.88145 -1.25892 1.749
88 1 11.6277 11.5771 4.95387 0.984204 0.753922 0.308026
89 1 13.2705 9.8787 3.38481 -0.868173 1.16622 1.08379
90 1 14.8584 11.4992 4.97545 -0.029953 0.359071 -0.659818
91 1 0.0126239 13.1521 3.36999 1.8099 -0.658306 -1.32679
92 1 1.63416 14.8029 5.01626 3.57729 -0.835011 -2.5315
93 1 3.29113 13.152 3.29477 2.90013 -0.64773 0.189413
94 1 4.95172 14.8 4.97337 1.34814 0.504898 -1.05444
95 1 6.6051 13.2919 3.36731 1.87887 0.524592 0.183344
96 1 8.28338 14.9381 4.92074 1.31265 0.407191 0.622515
97 1 9.90598 13.1727 3.35891 0.378732 1.59826 -0.145348
98 1 11.6372 14.8269 5.0005 -1.67292 0.958889 1.46738
99 1 13.2642 13.2271 3.3415 -1.31304 1.68138 -1.32872
100 1 14.9756 14.9254 4.87815 0.515701 -1.56036 -0.678178
101 1 0.0167243 0.00161835 6.5547 -0.795902 -1.3894 0.298753
102 1 1.72394 1.62326 8.15253 -0.381192 0.870616 -2.46745
103 1 3.31962 16.3538 6.54273 -0.267317 1.17689 -2.20821
104 1 5.02057 1.50109 8.2281 -1.51781 -0.047354 0.452197
105 1 6.62355 16.4125 6.63068 0.0139379 1.43282 0.612916
106 1 8.32039 1.56306 8.30363 0.171446 -0.515171 1.07004
107 1 9.93762 16.48 6.71327 0.493975 1.34323 1.22086
108 1 11.6009 1.61546 8.31858 0.333412 -0.235334 2.25569
109 1 13.2862 0.025062 6.64013 -1.10352 0.52862 0.435367
110 1 14.8554 1.52666 8.29858 0.630646 -0.211909 1.31568
111 1 0.0142774 3.22612 6.63398 -0.18156 -1.49707 -1.13267
112 1 1.60629 5.03143 8.19159 0.245675 -1.12756 -1.67352
113 1 3.36072 3.29887 6.63103 -1.0554 -1.11818 -1.68694
114 1 5.1165 5.11783 8.15604 -1.01749 -0.702576 0.635892
115 1 6.51648 3.30949 6.72899 0.288611 0.35563 -0.282138
116 1 8.1683 5.06141 8.22501 1.14195 1.31621 0.431888
117 1 9.85513 3.30249 6.77404 0.0573011 0.213459 -0.0433304
118 1 11.519 5.1082 8.27985 0.92497 0.391602 1.82585
119 1 13.1661 3.29138 6.60222 1.24809 -0.337638 0.121757
120 1 14.87 4.9645 8.22776 -0.734316 1.26722 -2.2624
121 1 16.4499 6.65557 6.63093 0.0467634 2.02233 -2.78173
122 1 1.74789 8.21218 8.40563 -0.222417 1.45592 -0.648258
123 1 3.3242 6.70475 6.66629 0.194438 -1.55404 0.0606674
124 1 5.06833 8.25323 8.34239 -1.80686 0.35808 -0.186109
125 1 6.68178 6.69947 6.54717 -0.0383524 -4.03183 0.56711
126 1 8.26478 8.39804 8.27127 -1.26232 -0.273693 -0.554085
127 1 9.77607 6.66156 6.64636 -1.3014 -2.20195 0.771872
128 1 11.5592 8.37391 8.19429 -0.500171 0.787235 1.75722
129 1 13.2624 6.68825 6.68003 -2.0314 1.07595 0.754419
130 1 14.8231 8.29574 8.33728 0.137715 -0.622153 -1.75825
131 1 0.0344773 9.77896 6.6914 0.893592 0.478139 -1.66471
132 1 1.64932 11.4778 8.26788 0.599065 -0.721616 0.330477
133 1 3.38992 9.97201 6.54892 -1.84624 -0.501458 -1.96999
134 1 4.793 11.5379 8.34984 -1.87116 0.0448129 1.04791
135 1 6.643 9.88483 6.58688 0.322449 0.655255 0.278647
136 1 8.06638 11.695 8.20317 0.719217 -2.09686 -0.811991
137 1 9.84785 10.0006 6.61873 -1.17359 -0.318656 -0.468864
138 1 11.5227 11.6005 8.05188 0.870569 0.762972 -1.04503
139 1 13.3091 9.91813 6.61216 -0.399315 0.725413 1.64527
140 1 14.9479 11.5233 8.21621 -1.44177 1.92319 0.209598
141 1 0.0422811 13.2521 6.70953 2.56614 -0.782701 0.101269
142 1 1.58201 14.9571 8.33227 -0.53313 -1.53594 -0.648202
143 1 3.28012 13.1618 6.64148 1.07429 0.344759 0.388502
144 1 4.90437 14.8263 8.28078 -0.711516 0.254172 0.136742
145 1 6.63022 13.196 6.55957 0.292542 1.76937 0.163277
146 1 8.25581 14.8499 8.28247 -1.84223 0.264133 0.840041
147 1 9.8833 13.2492 6.64037 -0.835052 1.14821 1.35485
148 1 11.6206 14.8879 8.26115 2.46232 0.685042 1.96717
149 1 13.3548 13.2513 6.61907 0.89216 -0.746087 -0.942348
150 1 14.8519 14.9436 8.29032 -1.55577 -0.289364 -0.323167
151 1 16.4627 0.00204374 10.0208 0.106742 0.195827 -1.82885
152 1 1.64937 1.71576 11.4677 -0.329905 -0.0946559 -0.243172
153 1 3.41088 16.5019 9.93108 -0.673554 -1.09268 -0.680738
154 1 5.10346 1.65912 11.5411 -2.26618 -1.18967 0.398394
155 1 6.6568 16.4082 9.91311 0.12492 0.135042 1.2576
156 1 8.32939 1.65929 11.6155 -1.66394 0.864346 0.0313992
157 1 9.90371 16.4806 10.0191 -1.06772 -1.18054 1.89201
158 1 11.5301 1.72875 11.5714 -0.653676 -0.491396 -0.826989
159 1 13.1121 0.0197491 9.9908 -0.941186 -1.03145 -0.955908
160 1 14.9078 1.63131 11.6272 2.04223 -0.813861 0.10517
161 1 0.0553876 3.23579 9.78589 0.953156 0.507315 0.232148
162 1 1.7545 4.90171 11.4813 -0.0501509 -0.357243 0.80224
163 1 3.37468 3.24753 9.70021 1.11381 0.5722 0.80413
164 1 5.01493 4.92093 11.4335 -0.366669 0.699931 -1.3032
165 1 6.66766 3.23951 9.92451 1.08124 2.35582 1.82826
166 1 8.31599 4.89533 11.5357 -0.311768 -1.09727 0.103779
167 1 9.88318 3.36859 9.82837 0.363163 -0.873884 1.02734
168 1 11.574 4.88958 11.5257 1.02908 2.20962 -1.12066
169 1 13.2321 3.26747 9.87703 0.263909 -0.194559 0.753957
170 1 14.9897 4.97191 11.4313 0.736562 2.57995 -1.1982
171 1 16.3908 6.70391 10.0145 0.361131 -0.873551 0.0327362
172 1 1.67097 8.29769 11.7579 -0.222968 0.692532 0.993932
173 1 3.39467 6.51531 9.87995 0.911437 -0.61826 1.09424
174 1 4.91077 8.25862 11.5673 -0.70998 -0.071007 0.0761514
175 1 6.54088 6.67524 9.99238 -0.824996 -3.49221 -0.456562
176 1 8.31926 8.2429 11.4537 -1.07705 -0.191593 0.426652
177 1 9.91525 6.6793 9.86845 -0.312363 0.714526 2.07064
178 1 11.6492 8.27958 11.5019 1.01361 -0.4209 -0.98867
179 1 13.1248 6.6536 9.86099 0.695606 1.42713 0.498307
180 1 14.9485 8.29204 11.5825 1.24264 -0.339829 0.64111
181 1 0.0794673 9.86092 9.97958 0.534779 -0.429153 -0.0926327
182 1 1.53948 11.5823 11.4671 0.373124 -1.3444 -0.511053
183 1 3.27382 9.83705 9.92519 -0.9269 -1.03292 0.511261
184 1 4.87095 11.5498 11.4947 -0.660272 -0.479291 -0.102732
185 1 6.61637 9.97433 9.97866 0.618132 1.22813 -0.344807
186 1 8.2021 11.6175 11.547 -2.70081 -1.59947 -1.41067
187 1 9.93222 10.0128 9.77503 -2.22283 -0.0385484 -1.50847
188 1 11.4722 11.6154 11.4433 0.517844 -0.10845 -1.78533
189 1 13.1795 9.99951 9.93227 1.65685 1.17017 -1.39178
190 1 14.8346 11.5574 11.5896 -1.985 -0.226972 0.11222
191 1 16.4666 13.2311 9.95335 1.65814 -1.31533 0.741013
192 1 1.69208 14.9511 11.6629 0.925587 -2.49196 -2.14018
193 1 3.1846 13.3254 9.86999 -0.420313 -0.452118 -1.4326
194 1 4.93415 14.8903 11.5735 -0.885722 -0.277559 -1.84446
195 1 6.47504 13.2274 9.88117 0.243985 -0.688718 2.43767
196 1 8.18773 14.8599 11.6483 -1.66452 0.0216637 0.0124414
197 1 9.85251 13.1427 9.84485 -1.33218 0.0223773 -0.669236
198 1 11.4919 14.7934 11.5637 0.745718 -0.89121 1.14659
199 1 13.1895 13.1625 9.86464 -0.594427 -0.00491653 -0.078625
200 1 14.7518 14.8057 11.5353 1.81791 0.634684 -0.76495
201 1 16.5178 0.0472854 13.1427 0.577276 -0.819802 -0.983343
202 1 1.71607 1.63799 14.8449 -0.0240569 -1.25052 0.735866
203 1 3.3701 0.108123 13.1883 -0.331386 -1.18086 -1.48905
204 1 4.97909 1.63978 14.7945 -0.471675 0.405772 0.384386
205 1 6.61518 16.493 13.2761 -1.69244 1.39932 2.11456
206 1 8.35368 1.60516 14.8965 -1.55867 1.18997 0.638318
207 1 9.95385 0.0712594 13.2224 0.934323 0.3522 -0.800466
208 1 11.6388 1.55907 14.8805 0.671643 -1.70191 -1.48026
209 1 13.2449 16.4456 13.209 -0.668019 -2.53479 0.714139
210 1 14.8976 1.64675 14.7918 1.60607 1.20064 -1.06004
211 1 0.0993111 3.26211 13.2482 1.73582 -1.09715 0.123794
212 1 1.69412 4.92091 14.874 -1.91467 0.142342 1.2096
213 1 3.34937 3.3444 13.1165 -1.07958 1.14665 0.949024
214 1 4.94985 4.94411 14.8817 -0.179838 0.230602 -0.265666
215 1 6.72823 3.32793 13.2807 -2.04095 1.38806 -0.802749
216 1 8.20209 5.08782 14.9204 1.02464 0.891539 -0.559248
217 1 9.92714 3.34643 13.2607 1.70227 1.54166 -1.37581
218 1 11.5965 4.91298 14.9721 0.391798 1.61482 -1.74968
219 1 13.2306 3.43382 13.1816 2.09276 -0.460489 0.284854
220 1 14.9455 4.95321 14.8776 1.02957 2.49918 1.74412
221 1 16.5188 6.60534 13.316 0.551226 0.174599 0.473907
222 1 1.7653 8.30813 14.9563 -2.26361 1.64083 2.1716
223 1 3.29334 6.54558 13.1893 -0.959251 -0.562896 0.653249
224 1 4.93458 8.29733 14.8044 -0.201084 -0.544603 2.21705
225 1 6.61554 6.56818 13.1925 -1.18627 -0.84176 0.401543
226 1 8.23902 8.35308 14.7505 0.806348 -2.45033 -1.398
227 1 9.99197 6.58876 13.1504 -0.261894 -0.411684 -0.400056
228 1 11.6444 8.21454 14.7427 -1.47783 0.640281 1.51434
229 1 13.2438 6.53239 13.0977 2.27831 0.949455 0.249102
230 1 14.8754 8.24596 14.9628 1.30285 1.74839 1.41429
231 1 16.5155 9.90831 13.3638 0.00936826 0.811782 -0.463097
232 1 1.66567 11.5692 14.7998 -0.757569 0.0599619 2.32983
233 1 3.24984 9.89433 13.1249 -0.669806 0.343216 1.73555
234 1 4.99154 11.6168 14.6563 1.85454 -0.664858 2.9058
235 1 6.6626 9.86501 13.0814 -3.15157 -2.05481 -0.144127
236 1 8.23774 11.5363 14.7913 0.257379 -0.631473 -0.58662
237 1 10.0055 9.93725 13.1347 -0.744425 -1.20268 0.635392
238 1 11.4968 11.4119 14.8284 -3.85707 0.227579 -0.52406
239 1 13.1939 10.0204 13.1544 -1.88331 -0.34471 -0.744635
240 1 14.8544 11.6213 14.8409 -0.711888 -0.199084 -1.1495
241 1 16.4171 13.2213 13.2099 -1.80678 -0.587746 0.755414
242 1 1.72923 14.87 14.7448 0.553015 1.25396 1.22614
243 1 3.16833 13.2068 13.0998 -0.502464 0.236237 2.51471
244 1 4.96632 14.84 14.932 0.758721 0.371574 -0.880756
245 1 6.53541 13.1962 13.1457 0.87831 0.642236 -0.733468
246 1 8.18352 14.8755 14.8733 0.521946 1.80211 -1.13251
247 1 9.81066 13.2533 13.2762 -0.857455 -1.8539 -0.873692
248 1 11.5137 14.8289 14.8526 0.436212 -1.72441 -0.728859
249 1 13.1015 13.1213 13.2294 -0.294355 0.371951 -0.225891
250 1 14.7852 14.7849 14.8293 -0.472311 -0.386159 -0.96865
