ITEM: TIMESTEP
560
ITEM: NUMBER OF ATOMS
250
ITEM: BOX BOUNDS pp pp pp
0.0000000000000000e+00 1.6520000000000000e+01
0.0000000000000000e+00 1.6520000000000000e+01
0.0000000000000000e+00 1.6520000000000000e+01
ITEM: ATOMS id type x y z vx vy vz
1 1 16.4453 16.3116 16.4433 -0.434565 0.734394 1.2575
2 1 1.66745 1.5623 1.62609 1.09804 -1.55417 -1.22824
3 1 3.3282 16.4574 16.38 0.0096644 1.40032 -1.23903
4 1 4.97581 1.52243 1.71259 1.01621 2.05485 0.884564
5 1 6.60651 0.0325191 16.467 1.75229 1.4574 -0.12253
6 1 8.23393 1.66076 1.69789 1.68992 -1.216 -1.2395
7 1 9.93075 16.4525 16.4986 0.387357 0.840361 -2.05449
8 1 11.6 1.7252 1.54782 0.821489 0.304149 -1.53428
9 1 13.2465 16.3433 16.416 0.69802 -0.600952 0.191372
10 1 14.8943 1.63641 1.60038 -0.325864 -1.22218 -0.743943
11 1 0.0195814 3.2773 0.0180736 -2.14423 1.12289 0.412704
12 1 1.62903 4.94424 1.70062 0.449495 0.157595 1.65231
13 1 3.22428 3.30249 16.4646 0.381919 0.396215 -0.810657
14 1 4.82653 4.94682 1.73757 1.32234 -0.992329 -0.19919
15 1 6.55332 3.35475 0.172926 0.455998 -0.714787 -1.81127
16 1 8.2531 4.91345 1.75665 0.339303 0.264867 0.547553
17 1 9.81872 3.34031 16.3986 0.889997 0.956135 -2.39553
18 1 11.5791 4.85661 1.55881 -0.12366 1.34429 1.87602
19 1 13.3842 3.31346 16.4075 -0.456925 -0.296795 -0.633739
20 1 14.7732 5.00108 1.74421 0.739053 1.50661 -0.623176
21 1 16.4951 6.77239 0.174022 0.534442 -0.28382 0.780706
22 1 1.57685 8.46049 1.65294 0.726371 0.60234 -1.0065
23 1 3.1879 6.57194 0.00455829 -0.805052 -0.487391 -1.08923
24 1 5.08115 8.2325 1.67448 0.969863 0.227026 0.627197
25 1 6.5941 6.51219 16.4611 0.554596 0.449738 0.550144
26 1 8.31059 8.19786 1.6193 -1.36217 1.02868 2.15449
27 1 9.97541 6.59787 0.0242682 -1.62238 -0.584806 1.70185
28 1 11.5855 8.28122 1.71717 2.46911 2.42815 0.0441609
29 1 13.1987 6.65466 0.114088 -0.728207 1.77049 -1.18897
30 1 14.7651 8.27136 1.70132 -0.247278 0.189948 -0.761011
31 1 16.4591 10.054 0.0317569 0.452559 0.819616 -0.87568
32 1 1.7727 11.6185 1.8335 -0.280924 1.31044 0.398627
33 1 3.29283 9.93021 0.105116 0.83134 1.55217 0.824381
34 1 4.97006 11.465 1.71438 0.861689 0.558437 0.882663
35 1 6.69195 9.93397 0.0260368 0.741058 -1.04352 3.37671
36 1 8.35616 11.6386 1.64931 1.0344 -0.43272 0.266538
37 1 9.82452 9.91175 16.4798 -0.551444 0.877405 0.88853
38 1 11.6038 11.6423 1.64096 -0.198521 -0.587144 0.137026
39 1 13.238 9.94938 16.5166 -0.19625 -0.266912 1.50675
40 1 14.8469 11.6302 1.66996 -1.58972 -0.438958 0.492374
41 1 16.4516 13.2486 0.00153091 -0.591734 -0.925465 -1.27318
42 1 1.69291 14.9371 1.63997 -0.602088 1.37395 0.227356
43 1 3.34126 13.171 16.4802 0.427786 -0.648274 -0.368574
44 1 4.9722 14.8253 1.63106 0.716881 1.07397 0.484979
45 1 6.59141 13.1901 16.4393 1.00655 0.416265 1.01839
46 1 8.28353 14.827 1.5569 -0.938283 0.945275 -0.379632
47 1 9.87323 13.2588 16.4742 -1.32464 1.8085 1.38053
48 1 11.6128 15.0035 1.77991 -1.27723 0.688178 -3.07389
49 1 13.0842 13.1868 16.504 -1.14285 1.9242 -1.51531
50 1 14.8454 14.8876 1.64237 0.115989 1.04962 -0.836997
51 1 16.3925 0.0429968 3.27806 0.616799 -0.605534 0.211098
52 1 1.65897 1.64715 4.8502 1.53275 -1.12696 0.566438
53 1 3.41039 0.0671377 3.24853 -0.775441 0.232646 -0.179274
54 1 5.03127 1.6087 4.93534 0.390647 0.697488 0.156
55 1 6.76645 16.4874 3.35704 0.437012 0.513509 -1.19143
56 1 8.25164 1.67598 5.07514 1.72032 -0.540652 1.25576
57 1 9.89263 0.0904734 3.36621 1.00656 0.755281 0.316482
58 1 11.6045 1.76207 5.01433 -1.38485 0.420124 -0.858694
59 1 13.1174 0.0677366 3.34327 0.491371 0.694501 -0.279834
60 1 14.8499 1.53681 5.06951 1.30553 -0.273489 -0.96193
61 1 16.4042 3.26896 3.28714 1.05934 1.82196 0.585286
62 1 1.61652 4.94517 4.93467 0.288824 0.551963 -0.301442
63 1 3.29023 3.27066 3.3387 0.761005 -1.57558 -0.167549
64 1 4.99908 4.91165 4.99288 -0.585381 -0.549545 0.823589
65 1 6.59776 3.29663 3.36179 0.768836 0.823966 -1.26398
66 1 8.29923 4.8994 5.09594 0.0520457 0.840859 -1.07147
67 1 9.84749 3.29285 3.4121 1.29775 0.320118 0.785622
68 1 11.5297 4.9357 4.96411 0.993942 -1.26853 -1.51713
69 1 13.1906 3.20669 3.23738 -0.541189 -0.999354 -0.0555617
70 1 14.8023 4.9811 5.04378 1.09657 -1.04292 0.273886
71 1 16.4924 6.68085 3.30883 0.701361 -0.662065 0.568042
72 1 1.65867 8.3324 4.91758 0.191779 0.404984 -0.746886
73 1 3.34077 6.65357 3.35192 -1.10213 -1.11616 0.0736911
74 1 5.02885 8.26658 5.00484 1.94157 -0.0547173 0.739594
75 1 6.63149 6.5281 3.26369 -0.976277 -1.57073 1.7934
76 1 8.28605 8.30364 5.1032 -0.0664662 -1.01431 3.50512
77 1 9.85452 6.6118 3.30896 0.770144 1.7443 2.47735
78 1 11.4181 8.19437 5.00252 -0.478701 0.855413 0.307251
79 1 13.0642 6.6537 3.37932 0.582427 0.921023 -0.394049
80 1 14.838 8.35413 5.02807 0.966894 0.858217 -0.0919243
81 1 16.5 10.0031 3.4079 0.863296 -0.499883 1.76185
82 1 1.74296 11.6094 4.91759 -1.03507 0.112405 -1.13254
83 1 3.31514 9.85146 3.37593 0.884288 1.18735 1.03379
84 1 5.00815 11.4995 4.99686 -0.0606246 -0.207638 1.00466
85 1 6.66112 9.90025 3.31461 0.409261 1.52023 0.868309
86 1 8.32218 11.6144 5.06415 1.45461 0.877572 -0.842284
87 1 10.0617 9.8763 3.39265 -0.189852 0.324844 -0.302098
88 1 11.5505 11.6189 4.95877 -1.05308 0.575091 0.612091
89 1 13.2147 9.81459 3.44028 0.489522 0.996263 -2.06015
90 1 14.7754 11.6106 4.91384 0.00861623 0.12565 0.466663
91 1 0.00223075 13.161 3.20965 -1.60305 1.69734 0.46194
92 1 1.74925 14.8176 4.89626 -1.60545 1.98105 -1.13011
93 1 3.43809 13.2752 3.33209 1.55153 -0.821324 0.343889
94 1 5.06713 14.9118 4.91685 -0.187985 0.869862 -0.266812
95 1 6.55385 13.1997 3.31098 2.91152 1.58854 -1.11893
96 1 8.25595 14.9211 5.07584 0.317408 -0.465512 -0.347071
97 1 9.81349 13.2318 3.37256 -1.82817 1.16495 -1.51767
98 1 11.5371 14.9418 5.02405 -0.404371 -1.53401 1.93325
99 1 13.2564 13.2995 3.37694 -3.59952 -0.921538 -1.18296
100 1 14.9023 14.8859 4.9656 -0.703863 -0.383017 0.61603
101 1 0.0278576 16.4369 6.67376 -0.417048 -0.394504 -1.70945
102 1 1.66149 1.74239 8.35499 1.51108 0.753896 -0.0559812
103 1 3.42583 16.5193 6.58426 1.43726 1.95411 -1.32315
104 1 4.98618 1.66402 8.25717 -0.199882 -0.530663 -1.13251
105 1 6.60967 0.024567 6.6669 0.758982 0.95136 1.61909
106 1 8.31826 1.5984 8.28595 -1.79519 1.95204 0.413797
107 1 10.0361 16.48 6.73503 1.86687 1.1918 1.6703
108 1 11.5719 1.5846 8.32859 2.43401 -0.215727 0.571277
109 1 13.2454 16.4644 6.78844 -0.666998 1.07273 -0.924237
110 1 14.9178 1.70408 8.30746 0.122224 -0.26663 -0.999703
111 1 0.00140336 3.2549 6.50519 1.39983 -0.288254 -0.342849
112 1 1.64894 4.93112 8.34339 -2.26447 -1.94291 -0.00160622
113 1 3.2875 3.18418 6.57003 -2.35478 -1.74244 -0.0762788
114 1 4.96067 4.91254 8.21511 -3.3402 0.914501 -0.117621
115 1 6.62105 3.35241 6.66572 0.0900129 0.523108 0.317207
116 1 8.23944 4.84606 8.3347 0.0157527 -0.567822 1.75819
117 1 9.98048 3.29014 6.68339 1.42563 1.54197 -1.55873
118 1 11.57 5.01022 8.29023 -0.0125803 -0.681563 0.0566816
119 1 13.2201 3.21466 6.67547 0.701882 -0.925202 -1.71689
120 1 14.7855 5.05736 8.23599 0.139876 -1.68967 2.34959
121 1 0.0250853 6.61009 6.50697 -0.238046 -0.0134515 1.96384
122 1 1.7088 8.2279 8.14311 -0.519631 2.86098 -0.321524
123 1 3.247 6.55478 6.57986 2.18367 2.03915 -0.895178
124 1 4.95689 8.20278 8.25328 -0.891259 -0.803501 -0.868617
125 1 6.51299 6.57835 6.58195 0.266634 -2.65259 0.590901
126 1 8.26919 8.21279 8.33988 1.1715 -1.12731 0.596199
127 1 9.86182 6.61155 6.86966 1.81704 -1.50298 -0.689647
128 1 11.6006 8.30175 8.3349 -1.55668 -1.25969 0.346733
129 1 13.2124 6.64595 6.59243 0.0183275 0.317681 1.13532
130 1 14.8837 8.36525 8.25411 0.775427 -0.385969 0.690488
131 1 16.4836 10.0409 6.56257 1.1831 0.820719 -0.890034
132 1 1.69091 11.5374 8.22728 -1.55824 -1.16869 0.203482
133 1 3.29291 10.0346 6.58995 -0.0974072 1.50547 -0.178648
134 1 4.91456 11.6037 8.34414 0.275552 -0.811741 -1.68222
135 1 6.62003 9.93748 6.68601 0.470148 -0.84546 0.238386
136 1 8.19617 11.5619 8.21523 0.309547 0.211498 0.949234
137 1 9.99941 10.0024 6.56165 -0.421899 0.264049 1.51077
138 1 11.6117 11.557 8.20304 0.119907 -0.18675 0.0435214
139 1 13.1918 9.94592 6.6209 0.0705645 0.171258 1.23269
140 1 15.007 11.5725 8.30612 0.503127 0.949106 -1.07069
141 1 0.0620163 13.155 6.52648 -0.526323 0.585136 1.48029
142 1 1.68138 14.7847 8.17642 0.310466 -0.475442 -2.41248
143 1 3.41668 13.1801 6.60646 3.30641 -0.605685 -0.037523
144 1 4.85913 14.8557 8.29949 -0.357488 -2.84286 -0.101794
145 1 6.52227 13.2305 6.68504 -0.689766 -0.420675 0.624757
146 1 8.21069 14.8343 8.29977 0.296686 -0.100794 -0.301487
147 1 9.84379 13.3027 6.70718 1.45037 -0.0944726 -0.455574
148 1 11.482 14.7986 8.38045 1.25555 -0.16602 0.295336
149 1 13.109 13.266 6.56203 -3.08823 0.0523987 -2.28654
150 1 14.9106 14.7322 8.22581 -1.05675 -1.59366 0.0637737
151 1 0.0638527 16.359 9.8205 -1.31301 -1.28358 0.532099
152 1 1.71465 1.54708 11.5056 -0.6501 -0.630874 -1.13755
153 1 3.30857 16.4711 9.83332 0.0500539 -0.0236515 -0.54576
154 1 4.96871 1.63073 11.4105 -2.05556 -0.126386 0.33567
155 1 6.57263 16.5199 9.80231 0.011813 1.73797 -1.93845
156 1 8.10661 1.70229 11.7303 -1.82029 -0.378905 -2.1265
157 1 9.91062 16.4203 9.96789 0.752076 -0.56986 -0.933656
158 1 11.6841 1.61186 11.4502 0.00163763 0.072694 -0.776954
159 1 13.2814 16.3979 9.84641 0.21214 -0.221118 -2.07561
160 1 14.9929 1.57693 11.5577 -0.900236 -0.415168 -0.754285
161 1 16.5145 3.328 9.92537 0.339742 1.33524 1.34538
162 1 1.71489 5.02718 11.5821 -2.54461 -0.638067 1.2221
163 1 3.23605 3.33582 9.89249 -2.2785 -0.574779 2.82674
164 1 4.80486 4.97567 11.4958 -2.62314 -0.916791 1.95597
165 1 6.59065 3.35316 9.89277 -1.71304 0.884979 0.884731
166 1 8.1787 4.96593 11.5246 -3.05825 0.217883 0.843925
167 1 9.87766 3.42087 9.93148 -0.61323 -1.42085 1.80268
168 1 11.6014 4.97463 11.5243 -1.06958 1.24997 -0.761022
169 1 13.1968 3.28113 9.88964 0.956053 0.912247 -0.870766
170 1 14.8443 5.06402 11.5448 -0.712453 0.550334 -0.651723
171 1 0.0339716 6.60188 9.76518 0.0186459 0.400458 -1.65632
172 1 1.71275 8.31647 11.5335 -1.10114 0.561172 -0.304163
173 1 3.32843 6.61549 9.87919 -1.61668 -1.74049 0.743011
174 1 4.97807 8.38965 11.4957 -0.427461 -0.893482 -0.0783904
175 1 6.53625 6.62572 9.9161 -0.382096 -0.333558 2.21982
176 1 8.07686 8.27256 11.5221 -0.317141 -1.16714 1.441
177 1 9.93075 6.71448 9.98444 -0.0344459 0.216523 0.612936
178 1 11.6075 8.35338 11.5937 -1.66287 -1.84463 -0.299157
179 1 13.2886 6.72807 9.85723 0.679928 0.395446 0.998124
180 1 14.9786 8.21334 11.5115 -0.690745 -0.316781 0.111356
181 1 0.0910025 9.88005 9.8509 1.3509 1.78427 -3.11417
182 1 1.63072 11.5047 11.5823 1.73129 -1.47382 -0.0730046
183 1 3.26084 9.96863 9.799 -0.0816941 -0.388833 0.0589263
184 1 4.93385 11.5788 11.5594 -0.983511 -0.255926 -1.75503
185 1 6.57446 9.90019 9.78121 0.391597 -2.15801 -0.124924
186 1 8.20915 11.4577 11.5255 -2.13408 -0.41141 2.96336
187 1 9.91173 9.93457 9.83823 0.896836 -0.157169 3.57024
188 1 11.4146 11.6043 11.4291 1.28867 -1.22769 0.249195
189 1 13.2145 9.90509 9.89389 0.0339162 -1.90399 -1.64213
190 1 14.8592 11.5181 11.5901 1.0761 0.979654 -0.939356
191 1 16.4479 13.1824 9.8955 0.478027 -0.644749 -0.13717
192 1 1.70336 14.8981 11.5058 0.591084 -2.4324 -1.79367
193 1 3.28177 13.2184 9.97885 0.104488 -0.644754 0.910014
194 1 4.91925 14.8617 11.5023 -0.742577 -0.799758 0.108898
195 1 6.60735 13.2554 9.90997 -0.279937 0.0537712 -0.0616496
196 1 8.13758 14.9564 11.7755 1.96794 -1.40172 0.394599
197 1 9.81532 13.1663 9.89172 -2.78128 0.0805124 0.822875
198 1 11.5462 14.7461 11.4899 0.493534 1.7038 -2.74094
199 1 13.2433 13.2336 9.89038 -0.321555 0.106903 -0.709926
200 1 14.752 14.8807 11.5198 -1.19695 -1.37472 -1.85777
201 1 0.0370631 16.3612 13.1389 0.379714 -2.21266 0.404457
202 1 1.62095 1.58249 14.7924 -1.43702 0.490807 -0.862638
203 1 3.39339 16.5009 13.1733 0.56487 -1.58003 2.45417
204 1 4.98828 1.68126 14.8566 0.874589 -1.14458 -0.155896
205 1 6.45894 0.0971828 13.2309 1.96652 -0.480752 -0.999341
206 1 8.30333 1.67165 14.8173 0.419962 -0.311738 -2.16774
207 1 10.0266 16.5031 13.2166 -0.281496 -0.717614 -0.808109
208 1 11.508 1.68434 14.8139 -0.17589 -0.282821 -0.112206
209 1 13.2754 16.374 13.286 0.891411 -0.635212 -1.05435
210 1 14.9838 1.55757 14.8235 -0.517683 0.376504 -0.0301895
211 1 0.0495321 3.3493 13.125 -2.06276 -0.358953 -1.2542
212 1 1.63468 5.00129 14.8938 -1.61375 0.258992 -0.336154
213 1 3.17714 3.20482 13.1439 0.074305 0.41092 -1.57924
214 1 4.89685 4.93323 14.883 -0.209511 0.0939978 1.9144
215 1 6.4976 3.40231 13.1644 -1.8295 0.0277977 -0.204078
216 1 8.20757 5.0327 14.833 0.313189 0.604087 -0.123163
217 1 9.96576 3.32329 13.0421 -1.09455 0.323225 0.355631
218 1 11.6018 4.97143 14.8143 -0.821856 -0.347726 -2.25582
219 1 13.2232 3.32225 13.1216 0.960825 -1.09094 -1.99903
220 1 14.9241 5.07067 14.9095 -0.0232247 0.592943 -1.33533
221 1 0.0262091 6.65058 13.2598 0.181682 -0.173488 0.748287
222 1 1.65823 8.35679 14.9372 -1.06337 -0.401773 -0.50248
223 1 3.34212 6.75779 13.2517 0.775845 0.747424 -0.74522
224 1 5.04886 8.23007 14.843 0.553218 -1.30491 1.72505
225 1 6.65516 6.54958 13.2233 0.619048 1.24921 2.48572
226 1 8.30658 8.21131 14.8246 -0.225549 0.572358 0.358271
227 1 10.0176 6.52868 13.2597 -1.6331 1.78096 2.0663
228 1 11.495 8.29362 14.8878 -0.708999 0.0188938 0.398543
229 1 13.1915 6.6666 13.2695 0.369162 -0.714509 0.710332
230 1 14.8698 8.36679 14.936 0.735243 -0.692883 0.364183
231 1 0.00672859 9.91591 13.2059 3.08798 1.47787 0.317842
232 1 1.65842 11.6137 15.0061 1.60433 -0.533712 0.14733
233 1 3.32115 9.89662 13.3147 -0.876835 -1.19567 1.08501
234 1 5.02889 11.5476 14.8954 0.479209 -2.14962 0.123202
235 1 6.61388 9.91503 13.1955 -0.955279 -0.271629 0.580076
236 1 8.23303 11.5425 14.7291 1.27162 -0.461185 1.00153
237 1 9.80881 9.84006 13.0395 0.337625 -0.973781 1.00611
238 1 11.4602 11.4305 14.7708 0.483914 1.25486 1.2003
239 1 13.2744 9.89673 13.1292 0.422221 -0.0226708 1.22597
240 1 14.9563 11.5315 14.7891 0.861994 -0.747053 0.0171879
241 1 0.0712548 13.246 13.1015 1.26672 -2.20052 -0.78037
242 1 1.69923 14.8521 14.8049 0.0510456 -0.314283 2.58192
243 1 3.32287 13.1265 13.1966 -0.107764 0.483411 0.195981
244 1 5.05328 14.8501 14.8209 -0.239025 -0.0248799 -1.63811
245 1 6.59471 13.2858 13.1483 -1.70751 -1.26481 0.250125
246 1 8.27184 14.7853 14.8484 -0.434651 0.0639359 0.145848
247 1 9.81075 13.1793 13.0808 -1.20726 0.800867 -1.4844
248 1 11.546 14.8813 14.7858 -0.433106 0.747341 -1.69356
249 1 13.1644 13.1035 13.178 1.30007 0.969681 0.476934
250 1 14.7913 14.7851 14.8996 -0.373193 0.879407 -0.00368839
