ITEM: TIMESTEP
750
ITEM: NUMBER OF ATOMS
250
ITEM: BOX BOUNDS pp pp pp
0.0000000000000000e+00 1.6520000000000000e+01
0.0000000000000000e+00 1.6520000000000000e+01
0.0000000000000000e+00 1.6520000000000000e+01
ITEM: ATOMS id type x y z vx vy vz
1 1 16.5196 16.384 16.3638 -1.25712 0.874153 0.253793
2 1 1.67502 1.73904 1.64336 0.757035 1.12636 -2.11349
3 1 3.32786 16.4914 0.0282326 -0.70556 0.388173 -0.130996
4 1 4.92381 1.67166 1.55919 -2.05603 0.791835 -0.162331
5 1 6.64596 0.0987477 16.4233 0.619009 1.02905 1.5466
6 1 8.24998 1.77505 1.68079 -1.72609 -1.39461 2.17482
7 1 9.9489 0.0979022 16.4451 0.715711 -0.511986 1.47959
8 1 11.5624 1.64951 1.48028 -0.221308 1.38781 -0.520093
9 1 13.2684 0.0798765 16.3288 0.694854 0.194723 2.14288
10 1 15.0264 1.65485 1.62606 0.628408 -0.923649 2.45984
11 1 0.086803 3.1814 16.4463 -0.497685 -0.413068 -0.197944
12 1 1.60397 4.93294 1.66303 0.519586 -0.270787 0.497513
13 1 3.20309 3.26698 16.3989 0.17443 -0.891147 -0.779594
14 1 4.92038 4.92881 1.79057 1.62272 0.774424 0.565426
15 1 6.56257 3.35526 0.0116729 -1.42042 0.055346 1.78764
16 1 8.25708 4.92336 1.70741 -1.67013 -0.482808 -1.04463
17 1 9.89422 3.4054 0.00841791 -0.786193 0.36228 0.287583
18 1 11.6239 5.13273 1.61195 -0.0785509 -1.25359 2.84911
19 1 13.2237 3.37902 0.0640209 -1.21095 2.00062 0.869116
20 1 14.8314 4.96015 1.62001 1.14531 -0.496138 -0.795055
21 1 0.0750594 6.61959 0.0132569 1.62409 -0.155904 0.430094
22 1 1.75655 8.35031 1.71894 1.57515 0.48825 -0.908805
23 1 3.29583 6.60874 0.216864 0.0554571 -0.550257 0.202329
24 1 5.01863 8.33008 1.76615 -1.20704 -0.286294 1.33703
25 1 6.5301 6.72259 0.099284 0.957241 0.929426 -0.00448554
26 1 8.34129 8.20247 1.79388 -1.25613 0.00816787 -1.55521
27 1 9.83798 6.68738 0.0279173 -0.184847 0.0325927 -1.10787
28 1 11.5552 8.3499 1.67063 0.708391 -1.67843 -0.962468
29 1 13.2265 6.62585 0.0799695 -1.00186 1.08202 0.655371
30 1 14.984 8.27575 1.65104 0.1274 -0.945243 0.123664
31 1 0.0248727 10.0904 0.0676426 -0.203793 0.127344 -1.23817
32 1 1.62775 11.7107 1.73863 -0.972875 -0.634692 -0.139297
33 1 3.29157 10.0107 0.118719 0.22147 1.24885 -0.039165
34 1 5.04918 11.6534 1.61791 -0.730231 0.358532 -0.481741
35 1 6.68837 10.0272 0.0860875 -0.615741 -0.948772 -0.622895
36 1 8.32578 11.539 1.81875 0.232707 -0.87803 -0.34424
37 1 9.90329 9.96492 0.043989 0.454311 0.965334 -1.29399
38 1 11.5638 11.666 1.70212 -0.335346 -0.181345 1.50533
39 1 13.1802 9.96863 0.00161674 0.167653 -0.432595 1.99586
40 1 14.9248 11.7208 1.72879 1.23084 0.560367 -0.119513
41 1 16.5034 13.2636 16.4877 1.78485 1.65067 -1.50121
42 1 1.72347 14.8175 1.62837 -1.91433 -1.13262 0.573774
43 1 3.39656 13.2432 16.4973 0.0367584 -0.863815 -0.169859
44 1 5.08808 14.9911 1.6599 1.31132 0.373722 -0.167261
45 1 6.6272 13.2563 0.0301968 1.55153 -0.45518 -0.520945
46 1 8.29515 14.9628 1.64171 0.0382748 0.118748 0.0386773
47 1 9.90072 13.2134 16.4641 0.560123 -0.584945 -0.939293
48 1 11.5945 14.9134 1.54331 -0.0619518 0.741959 0.223986
49 1 13.1778 13.2898 0.0051071 -0.295296 2.36233 0.0156484
50 1 14.8403 14.8382 1.61423 1.88351 -0.0676796 0.385844
51 1 0.0320407 0.0228696 3.21397 0.895007 0.171669 1.46455
52 1 1.6379 1.52491 4.81759 0.552251 -0.149739 -0.803253
53 1 3.44919 0.0942037 3.34435 -0.278593 -1.28764 1.93897
54 1 4.97064 1.66403 4.99872 -2.59293 0.356333 0.234888
55 1 6.70909 0.108243 3.43263 -0.286008 -2.19546 0.12626
56 1 8.23351 1.809 5.11492 -1.05241 0.342359 -1.0774
57 1 9.91643 0.0703455 3.27787 -0.997817 -1.3695 0.712906
58 1 11.5915 1.66052 4.91918 0.609218 0.150227 -0.746409
59 1 13.2751 0.0673883 3.18957 3.33453 0.603483 -0.513188
60 1 14.9025 1.65407 4.82261 -1.06286 0.942654 0.328457
61 1 16.4999 3.33318 3.31038 0.0592995 0.690101 0.367953
62 1 1.69889 4.92632 4.90729 0.894668 1.1697 -2.11181
63 1 3.18614 3.33126 3.27358 0.60791 1.1461 -0.833353
64 1 4.9652 4.93611 5.03596 0.324532 0.796089 -0.0705033
65 1 6.67746 3.29418 3.3011 -0.347679 1.63083 -0.58561
66 1 8.36266 5.01623 5.08605 0.349215 -0.069528 -1.60688
67 1 9.88461 3.24683 3.29953 -0.173668 -0.360258 0.676095
68 1 11.5066 5.03657 4.91776 -2.19841 -0.464235 -0.389498
69 1 13.144 3.32076 3.19569 -1.29931 0.178316 -0.738093
70 1 14.8629 5.01668 5.02343 1.30829 0.746404 -0.625463
71 1 16.4545 6.65599 3.41863 0.12403 -1.26963 1.32082
72 1 1.79862 8.31984 5.02857 0.48265 -1.31215 0.654378
73 1 3.38685 6.67031 3.47048 -0.660576 -0.576413 -0.458328
74 1 4.99691 8.2402 5.15101 -0.191419 0.122975 -0.137395
75 1 6.63682 6.64369 3.31168 1.89918 0.438503 0.146465
76 1 8.29681 8.22103 5.1308 0.388125 0.86074 -1.36724
77 1 9.96714 6.7645 3.45507 0.76435 0.890494 -0.259113
78 1 11.6279 8.40324 4.98618 -1.36065 1.48763 -0.751624
79 1 13.2391 6.73967 3.25848 0.238056 -0.235245 -0.928854
80 1 14.9067 8.2849 5.16528 -1.80593 1.1149 0.478558
81 1 0.0252882 9.91792 3.35281 -0.721669 1.20173 1.40789
82 1 1.74208 11.6744 4.97103 -0.655205 -0.16084 -0.569022
83 1 3.45475 9.97432 3.34428 -2.48926 0.870403 -0.747996
84 1 5.01915 11.6357 4.95399 -2.83223 0.366053 0.503762
85 1 6.75261 9.80333 3.51877 -0.11186 -0.614683 0.0595865
86 1 8.33143 11.57 5.03316 1.47711 -0.822464 -0.941662
87 1 10.0058 9.8545 3.43603 1.78759 -1.67868 0.328366
88 1 11.5802 11.4713 4.93089 -0.140431 0.937725 -0.325346
89 1 13.2568 9.9371 3.37514 -0.222321 0.750718 0.61849
90 1 14.9045 11.6715 4.97958 -0.245682 1.72687 0.306602
91 1 0.0796243 13.2671 3.33682 1.15042 0.567116 -0.0478055
92 1 1.82885 14.8059 4.95297 -0.883973 -1.03914 -0.559626
93 1 3.40616 13.1648 3.21653 1.5607 -3.50151 -0.26502
94 1 4.9486 14.9345 5.02864 0.460029 0.764279 0.430781
95 1 6.72534 13.3201 3.37546 0.651931 -0.443048 -1.73282
96 1 8.35924 14.8931 5.04434 0.429383 -1.70746 -0.072913
97 1 10.0201 13.3187 3.30941 0.916725 -0.275528 0.545666
98 1 11.5792 14.8978 4.93055 -1.31032 -1.95908 -0.057141
99 1 13.2199 13.2746 3.24373 2.87956 1.37808 -1.46628
100 1 14.8355 14.8198 4.87347 1.36471 -1.30426 -0.387744
101 1 16.4396 16.4963 6.63811 -2.04085 0.446301 0.553836
102 1 1.61651 1.46168 8.08606 1.57203 -0.761062 0.318058
103 1 3.35327 16.4549 6.6465 -0.0633961 1.44971 1.30145
104 1 4.95223 1.63768 8.17981 2.05042 -0.87638 -0.118318
105 1 6.76245 16.5153 6.64003 1.11351 -3.1716 -0.137487
106 1 8.26879 1.76905 8.34168 0.512411 3.24553 -1.06531
107 1 9.87407 0.0107314 6.63801 -0.995759 -0.641628 -0.329027
108 1 11.5242 1.76605 8.25684 -0.924105 1.97353 0.312266
109 1 13.2253 0.161893 6.58682 -2.4184 2.01734 -0.749444
110 1 14.8332 1.57162 8.18734 -1.64032 0.285542 0.392803
111 1 16.497 3.34428 6.42586 -0.887788 -1.55817 -1.57911
112 1 1.60524 4.9418 8.31868 -0.972042 -1.44183 1.14583
113 1 3.22681 3.29673 6.52948 -0.942873 -0.00720876 1.89113
114 1 4.89429 4.92895 8.2921 3.74093 1.38601 0.832865
115 1 6.57648 3.34739 6.664 -0.347081 -1.38351 0.181188
116 1 8.22462 4.94072 8.33054 1.18181 0.350763 -0.65893
117 1 9.90168 3.33264 6.72622 0.892079 -0.471267 0.0905428
118 1 11.46 4.8853 8.30861 1.56041 -1.4322 0.468288
119 1 13.2925 3.36164 6.61364 0.233204 -0.909823 0.193246
120 1 14.8209 5.00114 8.20883 -0.548985 -0.563432 -0.432833
121 1 0.0381511 6.53166 6.53974 0.0491238 -1.35238 -0.126131
122 1 1.62971 8.19215 8.28652 1.27588 -0.326915 0.277913
123 1 3.24897 6.56292 6.74854 0.268858 -0.156619 2.02093
124 1 4.94876 8.18378 8.33458 -0.466417 -0.144033 -0.577993
125 1 6.56431 6.59431 6.72509 1.04208 1.69371 -0.885111
126 1 8.22379 8.20883 8.39063 -1.84551 1.79604 0.219623
127 1 9.99429 6.59907 6.79415 -0.628673 0.666792 0.258305
128 1 11.5809 8.22559 8.19542 -1.39883 1.18305 -2.23263
129 1 13.2195 6.59149 6.58181 0.839014 1.17283 0.321291
130 1 14.8102 8.15651 8.19633 0.405916 -2.63415 0.872108
131 1 0.0648383 9.87919 6.61917 0.150936 -1.25202 1.05014
132 1 1.69574 11.6291 8.20409 0.486968 0.32423 2.05054
133 1 3.33129 9.90362 6.77029 -3.38063 -0.614165 2.6031
134 1 5.01484 11.4819 8.2987 1.19559 0.5032 -1.04007
135 1 6.82514 9.93616 6.85439 -0.696081 1.52009 1.16437
136 1 8.31361 11.6301 8.46307 1.21698 1.04057 1.39537
137 1 9.89885 10.0127 6.59035 -0.860203 2.2453 -0.521336
138 1 11.5234 11.4009 8.28444 1.05229 -1.18112 -2.28974
139 1 13.2583 9.92931 6.66299 -0.709055 0.490946 0.298564
140 1 14.9887 11.5777 8.26698 1.09865 -1.84868 1.86525
141 1 0.0465404 13.242 6.49152 1.30014 0.11787 0.546715
142 1 1.6021 14.8525 8.23815 -1.02773 1.2936 1.05997
143 1 3.29229 13.1841 6.63976 -0.12856 -0.175197 0.931644
144 1 4.9855 14.8238 8.09637 -0.748243 1.81535 -0.0889854
145 1 6.68576 13.2688 6.60383 -0.922422 -1.03635 -0.314379
146 1 8.23251 14.7296 8.30687 -0.395426 -0.135068 -0.855515
147 1 9.8467 13.2555 6.62181 1.05936 -1.35334 -0.454136
148 1 11.5355 14.7923 8.16728 -0.416622 1.48701 -2.69361
149 1 13.2448 13.0959 6.5316 2.23757 0.912083 -0.634786
150 1 14.818 14.7927 8.07266 -0.051566 -0.508363 0.380432
151 1 16.5083 16.4279 9.71061 -0.29839 2.23661 -0.0909835
152 1 1.52938 1.46851 11.4724 1.02028 0.742355 -0.650849
153 1 3.27923 16.4088 9.92346 -1.75366 -0.19742 1.33
154 1 4.98056 1.41524 11.4838 1.32319 0.22774 1.03031
155 1 6.52564 16.4451 9.73816 -1.98231 0.492221 -2.57019
156 1 8.24456 1.57737 11.5146 -0.714712 -1.26787 1.17882
157 1 9.84375 0.0405791 9.74673 0.611496 -0.491098 -1.30394
158 1 11.6015 1.65978 11.5041 -2.0275 -0.955218 2.59028
159 1 13.1215 16.3347 9.72326 -0.648763 -0.116943 -0.683048
160 1 14.8647 1.44009 11.4102 0.615519 -1.6746 -0.754319
161 1 0.0269921 3.24183 9.75675 1.952 -1.13218 -0.954473
162 1 1.56209 4.93972 11.5994 0.130058 -0.589051 -1.54636
163 1 3.31089 3.1768 9.81857 1.2037 0.68933 0.218518
164 1 4.79469 5.03705 11.5732 1.18794 -0.147635 -0.243787
165 1 6.57937 3.36329 10.0359 1.9531 0.278101 -1.98884
166 1 8.08328 4.82996 11.6091 2.91861 -1.91469 0.832737
167 1 9.9159 3.34974 10.0307 -0.466264 -1.35758 1.68632
168 1 11.5482 4.93056 11.6909 -0.0949114 -0.27883 3.22062
169 1 13.1145 3.33759 9.96799 -1.61291 1.03621 -0.27
170 1 14.9286 5.00446 11.5248 1.76436 -1.16864 0.0368094
171 1 0.0695985 6.70372 9.97005 0.76763 -0.0965381 -1.09251
172 1 1.57104 8.30816 11.7023 0.679176 0.746911 0.73863
173 1 3.29315 6.68934 10 -0.400598 0.973135 1.8086
174 1 4.88975 8.13522 11.5894 -0.966152 0.545082 0.330067
175 1 6.58212 6.52472 9.84028 0.72202 -1.80945 -1.57014
176 1 8.10799 8.32233 11.5538 -0.445101 1.56991 -0.552156
177 1 9.94581 6.56185 10.0649 0.0526229 -1.15974 -1.04226
178 1 11.5335 8.3693 11.498 -0.905106 2.4281 -0.999898
179 1 13.1672 6.65241 9.95189 -0.384562 -0.306028 1.88007
180 1 14.7912 8.32669 11.5183 -1.24468 1.36632 -0.64163
181 1 0.0417412 9.85948 10.0257 -1.365 -2.46641 -0.801003
182 1 1.63389 11.6459 11.6011 0.281299 -0.139382 0.534222
183 1 3.25292 9.88804 10.0332 -1.59543 -1.78642 2.29241
184 1 4.89301 11.43 11.6364 0.673952 2.23043 -0.0702698
185 1 6.57242 9.86409 9.94289 0.513743 0.409233 -0.330286
186 1 8.24113 11.535 11.5825 0.346503 1.57217 1.56902
187 1 9.7262 9.92378 9.89564 1.23229 -0.0396976 -0.310435
188 1 11.4839 11.5411 11.5364 -0.636559 0.935986 1.97847
189 1 13.2461 9.85045 9.87437 -0.624921 -1.07194 0.282293
190 1 14.7357 11.4588 11.6272 1.60666 -0.370524 0.10721
191 1 0.00596841 13.0942 9.84055 -0.179653 0.301971 -0.482777
192 1 1.6024 14.782 11.4023 -0.572446 1.97062 -2.20295
193 1 3.30999 13.2472 9.89986 0.212708 -0.535638 -1.21784
194 1 4.99392 14.8549 11.4375 -0.924563 2.40858 1.85126
195 1 6.38411 13.109 9.94071 -2.05272 -0.996984 1.27282
196 1 8.11702 14.8293 11.3966 1.61282 -2.15065 -0.916354
197 1 9.97151 13.1653 9.93985 1.07633 -0.589255 0.221945
198 1 11.3522 14.8356 11.4545 0.419129 -0.508269 -0.146296
199 1 13.1491 13.0649 9.90393 -0.612816 -1.02368 0.691018
200 1 14.8512 14.638 11.3657 0.761822 -1.78748 -1.39713
201 1 16.5078 16.3998 13.1517 -0.306278 -1.15197 0.396767
202 1 1.59725 1.59305 14.7133 -0.0371721 0.0757658 -2.15754
203 1 3.29333 16.4367 13.1104 -0.272569 0.489964 -0.682747
204 1 4.9344 1.57803 14.8352 -0.907258 0.0645371 0.706668
205 1 6.55511 16.4617 13.1673 0.173018 -0.151676 0.790897
206 1 8.28775 1.64397 14.7352 -0.667393 -0.648814 -0.0518265
207 1 9.73475 0.0446492 13.1629 -0.841913 -0.652893 0.200543
208 1 11.5711 1.64747 14.6279 -2.42367 -1.41005 0.420129
209 1 13.2054 16.3894 13.0518 0.319488 -0.436009 0.103854
210 1 14.8229 1.67391 14.6676 -0.531305 0.498614 -1.21864
211 1 0.0443119 3.19677 13.0347 1.72739 0.253861 -0.184191
212 1 1.61145 4.86093 14.9369 2.06857 0.363959 0.113195
213 1 3.26059 3.17331 13.2368 -0.714978 -0.436174 -0.35261
214 1 4.90461 4.93456 14.8978 0.81525 1.05822 -0.950418
215 1 6.62788 3.19366 13.1158 0.989163 -2.07547 -1.29507
216 1 8.23553 5.00212 14.8743 1.79641 0.689055 1.05346
217 1 9.85989 3.31413 13.077 -0.534273 2.28773 0.64636
218 1 11.5153 5.01885 14.7506 -0.395122 -0.366334 -2.12908
219 1 13.1826 3.30215 13.0909 -1.35108 0.368203 0.609249
220 1 14.8514 5.01094 14.8296 0.194584 -0.986683 0.256908
221 1 0.0495466 6.68389 13.2961 0.55706 0.825126 0.504868
222 1 1.71184 8.34176 15.0431 0.164488 1.02383 1.11242
223 1 3.35217 6.60358 13.3881 1.12373 1.03723 -0.412331
224 1 4.88586 8.31345 14.9821 -1.26929 0.305719 -0.524207
225 1 6.55196 6.67507 13.331 -0.195852 -1.30919 -1.29792
226 1 8.30173 8.2872 14.974 -2.42241 -1.17546 -1.50581
227 1 9.79481 6.4601 13.1797 0.551365 -1.60162 -0.00848592
228 1 11.5983 8.24052 14.9046 -0.395707 -1.29824 0.106191
229 1 13.2951 6.64277 13.1749 1.32321 -0.551042 -1.95299
230 1 14.8931 8.36798 14.9312 -0.541783 1.20928 -1.30182
231 1 16.4844 9.96728 13.3425 -1.00572 1.40786 0.25491
232 1 1.68458 11.5807 14.83 0.248006 -1.04658 -0.863487
233 1 3.24777 9.88951 13.1956 -3.0838 0.0957147 1.14733
234 1 5.05826 11.5462 14.8649 3.43629 -1.59886 0.200597
235 1 6.48555 9.88457 13.2647 -0.391783 -0.0344192 -0.384063
236 1 8.26296 11.553 14.8802 0.306766 1.60652 -0.83082
237 1 9.96289 9.98417 13.2216 -0.641506 -0.736333 -2.05873
238 1 11.6184 11.5374 14.7676 0.710207 -1.53741 1.10415
239 1 13.2703 9.84643 13.2212 0.171118 -0.0878204 -0.00202639
240 1 14.7928 11.5621 14.8525 -1.05142 -1.62238 0.677046
241 1 16.4667 13.1891 13.1622 -2.79428 -1.47691 -0.720211
242 1 1.68944 14.8647 14.7891 -1.94302 -0.114007 -0.0663744
243 1 3.3462 13.1899 13.2001 1.22334 1.50518 0.979265
244 1 4.93844 14.8827 14.9099 -0.071796 0.214206 -1.61026
245 1 6.57545 13.2086 13.2042 2.18798 2.03913 0.568586
246 1 8.20001 14.8101 14.8675 -0.0553718 1.91709 0.971118
247 1 9.83475 13.0867 13.164 -0.955999 1.04039 -0.248635
248 1 11.4997 14.8985 14.7371 -0.767454 1.0626 -0.432361
249 1 13.1179 13.1418 13.0939 0.68723 0.414358 2.39678
250 1 14.838 14.709 14.7805 -0.989197 -1.0653 -0.158288
