ITEM: TIMESTEP
710
ITEM: NUMBER OF ATOMS
250
ITEM: BOX BOUNDS pp pp pp
0.0000000000000000e+00 1.6520000000000000e+01
0.0000000000000000e+00 1.6520000000000000e+01
0.0000000000000000e+00 1.6520000000000000e+01
ITEM: ATOMS id type x y z vx vy vz
1 1 16.4429 0.0651044 0.0682533 0.907883 -0.269566 -0.130356
2 1 1.62347 1.66804 1.57765 -0.327121 -2.19205 -0.67891
3 1 3.39176 0.0378474 16.461 0.325199 1.75341 -1.50088
4 1 5.03159 1.68902 1.66022 2.41761 1.25848 0.164127
5 1 6.64967 16.4819 16.5094 0.836931 -0.793844 0.473972
6 1 8.36593 1.6201 1.57873 0.620869 -0.0926508 -2.17141
7 1 9.9529 16.4288 16.432 -0.822253 -0.0718852 -2.33904
8 1 11.5808 1.78411 1.60988 0.927478 0.49532 -0.0131558
9 1 13.1029 16.4032 0.0786602 -0.13557 -1.24315 -1.65717
10 1 14.6872 1.55906 1.67446 -1.4143 -0.320472 -2.57929
11 1 16.4548 3.3748 0.0893128 -1.26764 1.36028 -0.978027
12 1 1.71279 4.89541 1.64362 -0.3613 2.05421 1.38935
13 1 3.31649 3.25774 0.129138 0.126334 -0.423481 1.76898
14 1 5.04332 4.99428 1.60045 -0.899263 -0.707186 -0.338705
15 1 6.63339 3.28154 0.0665121 0.116346 -0.192838 -0.383627
16 1 8.25162 4.9293 1.59996 -0.705112 2.55207 1.14509
17 1 9.93814 3.26786 16.4303 1.58053 0.293373 -1.82031
18 1 11.6736 4.80552 1.72433 -1.55181 -0.285678 0.288786
19 1 13.2063 3.33661 16.4232 0.745388 -0.533656 -3.24155
20 1 14.8579 4.95402 1.61328 0.670019 1.04717 0.911829
21 1 16.5094 6.61404 0.0555362 -0.736993 -0.102055 0.945042
22 1 1.71927 8.25058 1.55403 -0.111714 0.00156979 1.72882
23 1 3.2527 6.58717 16.4143 -0.0387329 0.833894 -0.176533
24 1 4.92683 8.12795 1.7124 1.15157 1.39896 -0.00378403
25 1 6.72564 6.51566 0.0244117 0.797225 -1.64436 1.26442
26 1 8.1949 8.27899 1.63568 -0.593344 1.21776 1.32729
27 1 9.98541 6.60931 0.0216703 0.107594 -0.000241667 -0.358656
28 1 11.5712 8.1407 1.70497 1.30431 1.60816 0.618176
29 1 13.1452 6.65609 0.026519 0.873331 1.14374 -1.49022
30 1 14.7769 8.23999 1.64928 -0.875615 1.8566 0.15474
31 1 0.0270849 9.79097 16.4673 1.03471 0.286031 0.767181
32 1 1.73582 11.4788 1.68703 2.28595 -0.0263933 0.42609
33 1 3.35496 9.82592 0.0433943 0.386688 0.604489 0.438734
34 1 4.88122 11.6236 1.77189 1.5047 -0.601115 2.30836
35 1 6.5438 9.84264 0.0409111 0.787633 -0.30578 1.02748
36 1 8.21163 11.6504 1.55624 -0.325899 2.29697 0.431759
37 1 9.88575 9.93956 0.0315461 1.1485 0.327754 1.07564
38 1 11.5178 11.5512 1.72067 0.253368 -0.912228 -1.29827
39 1 13.2544 9.91121 16.4989 0.84058 0.552681 -0.112354
40 1 14.8488 11.5427 1.56604 -1.19088 -0.973538 0.920654
41 1 0.0564567 13.2566 0.0579383 -0.444599 -0.129056 0.951475
42 1 1.53896 14.8865 1.6571 0.659737 1.24992 -0.628036
43 1 3.28291 13.239 0.142491 -0.464549 -0.131092 0.689851
44 1 4.99007 14.8834 1.60072 0.824259 -0.187729 1.10922
45 1 6.59615 13.2009 16.4771 1.11731 -0.149327 1.35795
46 1 8.30631 14.8995 1.5977 -0.497536 1.38481 0.843596
47 1 9.89738 13.2402 16.4979 -0.695811 0.776483 0.979249
48 1 11.4849 14.8493 1.68423 0.0296481 1.54828 -1.76957
49 1 13.2426 13.2539 16.4602 -0.174908 -0.890843 -1.40936
50 1 14.7933 14.8242 1.60455 -0.581134 1.93337 -1.08015
51 1 16.3889 0.0548796 3.29423 -0.171127 -2.86743 -1.155
52 1 1.62292 1.78451 4.92262 0.167772 0.314849 1.55139
53 1 3.27213 16.5049 3.298 0.27016 0.264892 -1.14847
54 1 4.93214 1.6694 4.88101 1.00109 0.503346 0.351901
55 1 6.6709 16.5154 3.13215 1.08468 0.949847 -0.843628
56 1 8.32774 1.65297 4.80013 2.38191 -1.01556 0.332612
57 1 9.95133 0.0336597 3.25458 -0.229667 1.15435 -0.214753
58 1 11.6132 1.68219 4.94583 -0.185924 1.77205 0.793937
59 1 13.2151 16.5051 3.30095 -0.888415 0.614313 -1.11136
60 1 14.8158 1.65501 5.02037 -0.075257 0.0188474 -0.317382
61 1 0.00208163 3.22317 3.25418 -0.330648 0.713564 -0.68461
62 1 1.59189 5.01066 4.91792 -1.5106 0.990539 0.293774
63 1 3.37081 3.2712 3.27256 1.36696 -1.01362 1.27433
64 1 4.88561 4.94345 4.93308 0.0207538 -0.0167215 -1.02317
65 1 6.68819 3.37987 3.24058 0.0137776 1.40691 1.28491
66 1 8.20788 4.83187 4.90311 -1.42292 0.717353 -0.510891
67 1 9.96184 3.35446 3.30841 2.09721 2.82516 0.0466086
68 1 11.6082 4.89593 5.03773 0.575256 -0.988525 -1.15923
69 1 13.2898 3.25552 3.28569 0.0945867 0.0581772 -0.198263
70 1 15.0112 4.94876 4.9154 -0.991804 -0.669593 -1.89802
71 1 0.0323505 6.54403 3.27606 1.64712 -0.123354 -0.454809
72 1 1.59259 8.20908 4.88991 0.351889 0.993476 0.824589
73 1 3.24382 6.53079 3.16315 -0.30238 0.480808 -0.0411104
74 1 5.00446 8.1668 4.75383 2.16945 0.250626 1.76098
75 1 6.67385 6.54441 3.31063 -1.40489 -0.783772 2.88341
76 1 8.28638 8.2501 4.79734 0.0510054 -1.08874 2.48485
77 1 9.96537 6.52575 3.25767 -0.276431 -1.06683 0.667741
78 1 11.477 8.17909 4.93537 1.13999 -0.47546 1.40644
79 1 13.2235 6.49336 3.27497 0.0384688 1.00961 0.337737
80 1 14.8221 8.28641 4.76064 1.4775 -0.321529 -0.999274
81 1 0.0155686 10.0367 3.23816 2.04737 1.42116 1.09334
82 1 1.65277 11.6073 4.85547 1.51426 -1.97884 -0.770897
83 1 3.24042 9.88565 3.27657 1.76132 1.33106 1.37372
84 1 4.99127 11.612 4.972 2.17766 -0.728859 1.94695
85 1 6.62894 9.97311 3.22264 0.288649 0.949337 0.0219407
86 1 8.33845 11.5575 4.97193 0.646759 1.19532 0.685185
87 1 9.91505 9.9239 3.33746 -1.30833 2.50027 0.912755
88 1 11.4545 11.5724 5.00156 -0.169676 0.61579 0.740914
89 1 13.0503 9.93308 3.35086 2.2536 -0.0657291 -0.896425
90 1 14.7665 11.592 4.88352 1.37632 -2.31689 -0.987831
91 1 16.4257 13.1951 3.20339 -0.338463 1.49737 0.817844
92 1 1.51531 14.8531 4.79775 -0.411568 1.61301 -1.03543
93 1 3.33731 13.2274 3.39828 0.321969 2.13724 0.839433
94 1 5.1118 15.0299 4.91586 1.75029 -0.629556 0.00599913
95 1 6.66658 13.254 3.21902 -0.137131 0.923053 0.45461
96 1 8.2662 15.0008 4.94199 0.397232 2.26201 -0.975186
97 1 9.85736 13.248 3.37155 -0.604204 0.758224 0.57479
98 1 11.4149 14.8208 4.94038 0.418728 1.11864 0.967384
99 1 13.1999 13.2172 3.27376 -1.2325 -0.557114 1.88954
100 1 14.8544 14.7854 4.88041 -0.0404568 1.856 -1.0142
101 1 16.492 16.5155 6.59468 1.31314 -1.5052 -3.50505
102 1 1.64011 1.66022 8.38643 -0.340148 1.77914 0.550211
103 1 3.29675 0.0743956 6.51134 0.926311 0.344942 -1.0923
104 1 4.90132 1.59948 8.32238 -0.717488 0.353907 -0.359775
105 1 6.52874 16.4734 6.62298 -1.58488 0.930652 0.423093
106 1 8.27215 1.70397 8.21848 -1.03411 -0.91284 0.393056
107 1 9.93595 0.0292572 6.6188 1.7036 -0.147329 0.947866
108 1 11.6471 1.61799 8.30676 1.8499 -1.65052 -1.27633
109 1 13.1876 16.4605 6.62664 0.363147 -1.39616 -0.538031
110 1 14.9364 1.56039 8.24321 0.243715 1.85621 -1.06652
111 1 16.4668 3.25177 6.62595 -0.078239 0.136798 2.57805
112 1 1.57678 4.95426 8.18959 0.169595 -0.101067 0.10318
113 1 3.2567 3.29778 6.68643 0.434763 -2.20279 -1.08171
114 1 4.94703 4.99527 8.28969 -2.45732 -1.87971 0.443933
115 1 6.58478 3.1911 6.65779 0.569349 1.4123 1.58776
116 1 8.18847 4.9445 8.32875 -0.693603 -0.346543 2.43019
117 1 9.97384 3.30116 6.64442 0.239237 0.807834 -0.435024
118 1 11.7043 4.96883 8.25362 0.536769 0.654818 1.09464
119 1 13.2775 3.20824 6.65003 -2.18516 -0.720765 -0.478591
120 1 14.9408 4.97236 8.16179 0.410645 0.185468 1.3922
121 1 16.4733 6.71689 6.62765 0.267192 0.806946 2.06371
122 1 1.72831 8.35575 8.17417 -0.499578 1.69865 1.74429
123 1 3.32349 6.6695 6.51276 0.490891 0.933566 -1.12452
124 1 4.90493 8.21006 8.19367 -0.0857664 0.607142 0.787197
125 1 6.57817 6.56712 6.62927 -0.285076 -1.14869 2.12547
126 1 8.11685 8.25425 8.23927 2.03291 -1.39766 0.290653
127 1 9.8672 6.49573 6.55899 0.290892 0.775285 -1.20298
128 1 11.5993 8.25346 8.33346 -0.772107 1.28736 2.60086
129 1 13.3968 6.71917 6.69951 -1.16336 -1.30189 1.39944
130 1 14.9502 8.33039 8.33089 2.63533 2.14696 1.12016
131 1 16.4767 9.95709 6.51547 1.21956 0.923109 0.613806
132 1 1.68347 11.5742 8.20936 -0.227497 -1.46069 0.78397
133 1 3.23959 9.9001 6.48835 2.71192 1.04977 -1.29624
134 1 5.07254 11.6268 8.16885 -1.50751 0.406441 0.521955
135 1 6.49693 9.80018 6.53142 -0.701614 -0.652209 0.00713582
136 1 8.27491 11.359 8.09799 -1.59984 -0.0962461 -1.67132
137 1 9.94425 9.7954 6.66502 1.24586 -1.38918 2.55882
138 1 11.5282 11.6043 8.223 -0.960707 0.939406 -0.0166764
139 1 13.1176 9.85241 6.53595 0.835421 0.384736 -0.0843652
140 1 14.7641 11.5542 8.21745 -0.570934 -0.374357 -1.30398
141 1 16.5093 13.1693 6.55278 -0.541868 0.174005 -0.137846
142 1 1.6806 14.8054 8.16103 1.01114 -1.81019 -0.5558
143 1 3.40762 13.27 6.47868 2.21478 -1.50237 -0.81932
144 1 4.97147 14.9324 8.4059 -0.0752559 -1.24056 0.371222
145 1 6.64708 13.2984 6.64402 -0.577598 -0.960528 0.363086
146 1 8.26565 15.1119 8.17233 0.620533 0.317318 -0.662482
147 1 9.90947 13.2318 6.63054 2.26305 -0.558667 -1.26185
148 1 11.5215 15.0189 8.33502 -0.282839 -0.850885 0.137563
149 1 13.2292 13.3675 6.61321 -2.59743 -0.452806 0.0167793
150 1 14.9676 14.8896 8.32297 -0.664625 -1.61222 0.216162
151 1 0.0816992 0.0345658 9.98191 -1.22752 -3.2231 -0.291973
152 1 1.6647 1.67265 11.6335 0.485259 -0.471098 -2.07173
153 1 3.1607 16.4551 9.88478 0.578266 -0.458151 -3.56937
154 1 4.83759 1.77458 11.6724 -1.94893 -0.0310827 -0.693388
155 1 6.49615 0.0598663 10.0738 0.913708 0.185613 -0.344725
156 1 8.17324 1.82604 11.6777 -0.653581 0.627877 -1.46995
157 1 9.94907 16.4901 10.0319 1.02815 -0.983914 0.478419
158 1 11.4873 1.76574 11.6049 -0.125097 -1.71059 -2.58041
159 1 13.3689 0.119327 9.96023 0.248241 0.0613579 -0.580916
160 1 14.9209 1.73735 11.6438 -0.522743 -0.0382587 -1.90271
161 1 0.0290903 3.32729 10.0452 -0.976293 0.56031 1.06301
162 1 1.55861 4.96429 11.5482 1.48486 -1.78743 -0.398821
163 1 3.18674 3.43287 9.95513 -3.77735 -1.27045 1.70232
164 1 4.94575 4.93454 11.5868 -0.552443 -1.61624 1.05049
165 1 6.53883 3.31314 9.82435 -3.40485 -1.16658 -0.812645
166 1 8.40378 4.97383 11.6601 -1.50772 2.45 0.492546
167 1 9.87532 3.23281 9.86204 -0.819522 0.228505 -1.07597
168 1 11.5715 4.94316 11.52 0.0933756 0.810784 -1.57378
169 1 13.2517 3.3137 9.75325 2.29231 -0.21664 -2.31684
170 1 14.8272 4.92566 11.6215 -1.41907 1.14415 -0.199685
171 1 16.5161 6.587 9.84432 -1.39904 -1.21769 -0.119479
172 1 1.74664 8.24058 11.4614 1.7185 -0.938258 -0.0739223
173 1 3.20324 6.58737 9.89145 -1.77687 -1.51197 -0.0531424
174 1 4.87681 8.36542 11.6831 -0.322745 -0.671734 1.07959
175 1 6.43866 6.57953 9.99995 -1.66107 0.622671 1.9235
176 1 8.26075 8.2491 11.6549 1.11742 -0.607805 1.87304
177 1 9.86758 6.52707 9.82809 -1.51505 0.938353 1.03332
178 1 11.6376 8.24094 11.6365 -0.00446391 -2.14782 1.40942
179 1 13.3384 6.66108 9.96212 0.618734 -0.825595 -1.27115
180 1 14.8894 8.32189 11.6306 1.37822 -1.42949 1.6543
181 1 16.4631 9.9484 9.80357 -0.896888 0.833692 -1.34694
182 1 1.73605 11.4062 11.5615 -1.02675 -1.41216 0.322303
183 1 3.31913 9.82948 9.88798 -1.55575 -0.648039 -1.66332
184 1 5.00576 11.6341 11.474 -0.353569 -0.0851625 -0.518428
185 1 6.66412 9.8185 9.88764 -0.417402 -0.462976 0.562198
186 1 8.28308 11.4943 11.6271 -2.10027 -0.537943 0.0774938
187 1 10.0171 9.79702 10.0065 1.20679 -1.30078 0.570429
188 1 11.5569 11.5921 11.6523 -0.26523 -2.67201 -1.90606
189 1 13.2435 9.92496 10.0121 0.331442 -0.259096 -1.09248
190 1 15.0496 11.6514 11.5275 0.368578 0.219961 -1.00459
191 1 0.0402732 13.3197 9.89273 -1.71274 -0.0676664 -0.0764629
192 1 1.71853 14.9376 11.5454 0.168332 -0.0760059 0.553574
193 1 3.27012 13.0752 9.82439 -0.463615 -1.43915 -0.635032
194 1 4.88699 14.8728 11.6621 -0.766641 -1.82724 -0.00011391
195 1 6.80063 13.223 9.91136 1.86253 -0.579494 -0.91538
196 1 8.36729 14.8047 11.6961 0.612804 -1.3516 2.3234
197 1 9.79161 13.1453 9.923 -2.72177 0.2473 0.613996
198 1 11.755 14.7784 11.5609 -0.528478 0.234448 -0.408443
199 1 13.2551 13.2781 9.97295 0.0555184 0.622242 -1.64795
200 1 14.928 14.9333 11.6553 -1.67982 0.853057 0.00367913
201 1 0.0839715 0.0504556 13.264 -1.62979 -0.93556 -2.46077
202 1 1.69232 1.71682 14.9077 0.896837 -1.20522 0.13384
203 1 3.29726 0.0328071 13.2326 0.650899 -0.773706 -0.926087
204 1 4.91992 1.69927 14.9079 -0.327531 -0.799366 -1.3664
205 1 6.59931 0.0850703 13.2133 0.0833994 -0.973255 -0.181563
206 1 8.22371 1.66953 14.7667 -0.244523 1.0319 0.483333
207 1 10.0245 0.0394722 13.2091 1.21991 -1.20324 -0.885463
208 1 11.4864 1.58382 14.8811 1.26734 1.78601 -0.12692
209 1 13.2157 0.163913 13.3 -0.997013 -0.940852 -1.42374
210 1 14.9291 1.56696 14.9136 1.5747 -1.32873 -0.373217
211 1 0.0217662 3.35213 13.358 -2.19644 -0.138594 -0.819146
212 1 1.68332 4.9688 14.9093 -0.86227 0.151137 -1.67663
213 1 3.11891 3.32581 13.3132 0.0156928 -0.913269 -1.98108
214 1 4.87464 5.01641 14.911 -0.663167 -0.0180046 1.2713
215 1 6.57383 3.36917 13.2298 -2.6406 0.751453 0.589353
216 1 8.41291 4.99294 14.8896 -1.5523 -0.062502 -0.65969
217 1 9.97195 3.47279 13.1972 0.278005 -1.0434 0.00490242
218 1 11.6024 4.93188 14.846 -0.21722 0.160289 0.653948
219 1 13.1284 3.32243 13.2418 2.33097 0.784383 -0.791785
220 1 14.854 4.93502 14.9163 0.336656 -1.59198 -0.543241
221 1 16.4456 6.56781 13.1791 -0.821829 -0.703915 0.376607
222 1 1.56575 8.20279 14.8465 0.290651 0.582413 0.237208
223 1 3.26567 6.62424 13.1253 -1.85163 -0.417337 0.730172
224 1 4.9764 8.20937 14.9082 0.9316 0.677893 1.79434
225 1 6.50638 6.49966 13.2397 -0.541399 0.876198 1.85989
226 1 8.12357 8.17131 14.9667 0.256372 1.09682 0.45112
227 1 10.0494 6.57915 13.4287 -0.29673 2.01184 1.06786
228 1 11.5327 8.33501 15.0043 -0.799531 -0.128891 -0.305283
229 1 13.2067 6.54781 13.2571 -2.12979 0.176995 1.35197
230 1 14.8613 8.32794 14.7352 1.20408 -0.495252 1.7481
231 1 0.037065 9.91211 13.1533 0.558802 -0.445114 0.412046
232 1 1.648 11.4702 14.9643 -0.523219 1.04496 1.19961
233 1 3.23564 9.87558 13.3785 1.11152 -1.55493 0.980503
234 1 4.97204 11.5112 15.0083 -2.9457 0.67332 0.446795
235 1 6.61693 9.89922 13.3067 2.02864 -0.488132 1.07584
236 1 8.23315 11.6529 14.9102 -0.505524 -0.0997252 0.446794
237 1 9.8545 9.88254 13.2147 -1.01883 -1.15474 -0.187544
238 1 11.4684 11.5254 14.919 -0.613157 1.71622 0.461394
239 1 13.2316 10.0328 13.2128 -1.09278 -0.681799 0.0450166
240 1 14.9345 11.5006 14.8248 0.74008 1.79858 -1.31258
241 1 16.511 13.1692 13.241 -0.263674 -0.505629 0.528912
242 1 1.59436 14.8489 14.9636 1.12745 -0.812473 -0.0445968
243 1 3.29212 13.1487 13.2619 0.089564 0.291421 -1.14955
244 1 4.98916 14.8033 14.749 1.12267 -0.219129 -0.952441
245 1 6.65576 13.1595 13.2694 -1.30304 -1.7362 -0.385347
246 1 8.26 14.9555 14.7884 0.297955 -1.30527 -0.99884
247 1 9.94868 13.1817 13.1909 -1.91945 1.6805 -1.3746
248 1 11.5642 14.8279 14.8447 -0.187117 -0.652874 -0.19575
249 1 13.318 13.2048 13.3016 -1.69617 0.900012 -2.23159
250 1 14.8827 14.9308 14.8676 -0.465153 1.13431 -1.3921
