ITEM: TIMESTEP
770
ITEM: NUMBER OF ATOMS
250
ITEM: BOX BOUNDS pp pp pp
0.0000000000000000e+00 1.6520000000000000e+01
0.0000000000000000e+00 1.6520000000000000e+01
0.0000000000000000e+00 1.6520000000000000e+01
ITEM: ATOMS id type x y z vx vy vz
1 1 16.4491 0.0854531 16.4625 0.433337 2.17524 0.619951
2 1 1.6745 1.62784 1.49309 -0.997997 -1.83315 0.433174
3 1 3.23602 16.4984 16.4804 -0.265375 -0.622112 -0.978971
4 1 4.84598 1.71295 1.68804 0.916234 -0.932844 1.97134
5 1 6.64417 0.0999893 0.108838 -1.4423 -1.2508 1.10117
6 1 8.16901 1.59049 1.75486 0.535101 -0.317634 -0.293
7 1 9.91343 0.0195523 0.0330078 -0.98904 -0.225407 0.729273
8 1 11.558 1.76844 1.59957 -0.0493939 -0.0297385 2.22503
9 1 13.2644 0.0672219 0.0337188 -0.897525 -0.118151 1.12773
10 1 14.9187 1.66329 1.65568 -1.73989 1.49406 -1.59724
11 1 16.4241 3.28018 16.4129 -1.07223 1.68116 -0.0398145
12 1 1.683 4.96858 1.67239 1.06461 0.26559 -0.76419
13 1 3.34404 3.26118 16.4605 1.08968 1.43056 1.20081
14 1 5.0416 5.05878 1.69474 -0.0282537 1.33035 -1.91334
15 1 6.51278 3.32345 0.0601637 0.737213 -0.703737 -0.733756
16 1 8.20506 5.00801 1.61635 0.895881 1.25789 -0.111086
17 1 9.86296 3.34875 16.5126 0.066972 -1.41876 0.0565248
18 1 11.4651 4.92283 1.80298 -1.48522 -1.17169 -0.905721
19 1 13.1388 3.43176 16.4318 0.0493 -1.16657 -2.08248
20 1 14.9905 4.97296 1.60063 0.408054 0.567945 0.232148
21 1 0.101045 6.62315 0.0593227 -1.16671 0.259797 -0.036364
22 1 1.71088 8.3282 1.71353 -2.14323 -0.874235 0.26607
23 1 3.35199 6.57587 0.0614807 0.73528 0.204553 -2.44801
24 1 4.92315 8.29837 1.81894 -0.165096 -0.244412 -0.787662
25 1 6.62569 6.65618 0.0368197 0.0807158 -1.70362 -1.12392
26 1 8.22236 8.33013 1.58757 0.0404097 1.34662 -1.1992
27 1 9.92826 6.61453 16.4847 1.19922 -0.809107 0.128969
28 1 11.6135 8.2109 1.60902 -0.301833 -0.461197 0.410299
29 1 13.2221 6.69521 16.49 0.971009 -0.959359 -1.75664
30 1 14.9434 8.27631 1.69337 -0.67231 0.495015 0.568837
31 1 16.507 9.96138 0.00790766 -0.281776 -2.0963 0.195783
32 1 1.64302 11.5468 1.61471 0.999528 -1.19143 -1.2507
33 1 3.37221 10.0739 0.0633215 0.676636 -0.936015 -0.87729
34 1 5.07169 11.5704 1.67508 0.769665 -1.4228 0.864514
35 1 6.61828 9.83582 0.0453483 -0.515506 -1.39937 -0.417081
36 1 8.33709 11.5227 1.67329 -0.0589267 0.390811 -2.30516
37 1 9.94858 9.95972 16.4573 -0.241577 -1.65872 -0.191007
38 1 11.5893 11.5657 1.71458 0.913917 -0.825252 -1.22815
39 1 13.2528 9.9255 0.197229 0.786319 -0.37039 0.227588
40 1 14.9605 11.6121 1.63286 -0.509734 -1.49078 -1.20871
41 1 0.104293 13.2859 16.3963 -0.715304 -1.51567 0.584352
42 1 1.64645 14.8627 1.63794 1.15403 1.48308 -0.75556
43 1 3.35329 13.2089 16.4911 -0.281614 0.668026 0.111998
44 1 5.06576 14.9122 1.63922 -2.12535 -1.89699 -0.548605
45 1 6.7728 13.2282 0.012158 0.228164 0.0213269 0.0733787
46 1 8.31896 14.9113 1.64837 0.318325 -1.25774 0.083425
47 1 9.98237 13.2207 16.4798 0.643457 0.714742 1.25908
48 1 11.5625 15.007 1.64386 0.135202 0.0592627 1.46616
49 1 13.1659 13.3464 16.486 0.33089 -1.26116 0.186734
50 1 15.0476 14.9379 1.58547 0.722876 0.986575 -0.662858
51 1 0.116661 16.4796 3.34963 0.140811 0.124586 0.405426
52 1 1.68727 1.67476 4.92857 0.216365 2.33077 1.82356
53 1 3.31347 16.4011 3.33407 -1.50917 -1.31091 -1.85929
54 1 4.84194 1.73148 4.98342 0.746817 0.0997998 -0.608345
55 1 6.60913 16.4434 3.34509 -1.38137 -0.370736 -1.14682
56 1 8.22222 1.67533 4.89696 0.347318 -2.23505 -1.97668
57 1 9.90589 16.4957 3.34249 0.751963 0.0236223 0.270545
58 1 11.5576 1.71165 4.83588 -1.21539 0.198203 -0.538207
59 1 13.3679 0.0345288 3.2321 -2.06463 -1.2197 1.38537
60 1 14.7799 1.72126 4.92513 -0.421285 0.0265111 0.875959
61 1 0.0103253 3.35248 3.26706 0.806295 -0.877402 -0.809978
62 1 1.70373 5.02492 4.89404 -0.573499 -0.551343 2.26686
63 1 3.39968 3.355 3.27374 1.47355 -0.370214 0.803445
64 1 4.98491 5.02148 5.00878 -0.196957 0.793685 0.070289
65 1 6.5356 3.42189 3.37269 -1.14445 -0.395371 1.21281
66 1 8.2849 4.98458 4.90115 -1.19238 -0.530891 -0.781987
67 1 9.90661 3.33343 3.33651 -0.50917 0.973229 -0.655492
68 1 11.4994 4.94426 4.96281 2.14861 -0.117964 1.03537
69 1 13.1788 3.35305 3.25033 2.32404 0.289412 1.36397
70 1 14.8454 4.98897 4.84867 -1.03012 -1.04596 -0.934095
71 1 0.0611342 6.6295 3.34944 1.3237 1.01145 -2.24332
72 1 1.69245 8.20544 5.04133 -2.03185 -0.470433 -0.316696
73 1 3.31357 6.61776 3.30861 -0.175255 0.0166839 -1.63565
74 1 4.96242 8.33811 5.04779 -0.63396 0.992789 -1.3456
75 1 6.73726 6.64667 3.4431 -0.763345 0.461822 0.815401
76 1 8.32407 8.32489 5.01064 -0.00400732 1.30136 -1.14361
77 1 9.9614 6.67195 3.28718 -0.952423 -1.69445 -2.15923
78 1 11.5757 8.29782 5.03909 0.118722 -2.18528 0.600977
79 1 13.2604 6.63332 3.31386 -0.115828 -1.30067 1.29643
80 1 14.8119 8.34895 4.94821 0.532903 -0.669149 -2.86867
81 1 16.5156 9.9966 3.4406 0.272841 -0.551367 -0.684073
82 1 1.66612 11.5098 4.96916 -0.690972 -1.26219 1.30018
83 1 3.21125 9.98121 3.3634 -0.811349 -1.14684 0.745171
84 1 4.89337 11.5294 5.07034 0.440374 -2.0624 0.585149
85 1 6.6091 9.93773 3.37822 -1.96875 2.22384 -2.20812
86 1 8.32029 11.567 4.86758 -1.30416 0.383842 -1.11471
87 1 9.97643 9.88613 3.25957 -1.37861 1.68431 -2.36558
88 1 11.6357 11.7094 4.9424 1.27612 1.30799 -0.195582
89 1 13.3093 10.0196 3.31447 0.221602 0.315114 -1.05049
90 1 14.9436 11.613 4.95868 0.595405 -1.71712 0.0807552
91 1 0.104021 13.2713 3.29629 -0.702144 -1.35467 -0.720494
92 1 1.671 14.8506 4.90035 -0.952994 1.11759 0.768673
93 1 3.46054 13.1264 3.30266 -1.39407 2.64383 1.26822
94 1 5.05368 14.8697 4.95748 0.238822 -1.91231 -1.09678
95 1 6.70609 13.1828 3.22619 -1.09221 -1.79539 -0.374764
96 1 8.31731 14.7693 4.92138 -1.13323 -0.496 -1.01824
97 1 9.96863 13.2192 3.28501 -1.21746 -1.22559 -1.17926
98 1 11.5719 14.843 4.9289 1.1638 1.08706 -0.55649
99 1 13.3618 13.346 3.21025 -0.451661 -0.314807 0.599903
100 1 14.9593 14.8753 4.92248 0.293299 1.61116 1.17213
101 1 16.3749 0.00210077 6.49822 1.16957 0.416826 -1.17595
102 1 1.70564 1.65347 8.24128 -0.714737 2.63625 1.70536
103 1 3.29299 0.0524013 6.59964 -0.684141 -0.191652 -1.77195
104 1 5.03223 1.63428 8.21347 -1.12048 0.878302 0.30085
105 1 6.68931 16.389 6.59794 -2.13966 1.34 -0.914113
106 1 8.28191 1.8286 8.19464 0.414824 -3.07299 -1.52704
107 1 9.87505 0.0436617 6.5629 0.371156 0.867017 -1.15167
108 1 11.5191 1.73344 8.28796 0.369554 -2.20783 0.142492
109 1 13.0353 0.0650143 6.47858 0.351643 -2.93116 -0.381562
110 1 14.7177 1.71265 8.26088 -0.277503 0.93935 0.100143
111 1 16.496 3.17132 6.52262 0.599056 -0.266366 2.75338
112 1 1.62096 4.84454 8.29316 1.23164 0.244019 -1.44545
113 1 3.24336 3.29964 6.7325 1.6966 0.644251 0.508676
114 1 5.0853 4.97098 8.31113 -0.652599 -0.21092 -0.823662
115 1 6.57589 3.29571 6.6008 0.560446 0.648051 -1.7045
116 1 8.37569 4.97251 8.2634 0.824023 -0.0141031 -0.584896
117 1 9.9681 3.33877 6.53847 -0.105225 0.366164 -2.31563
118 1 11.6687 4.95354 8.31698 0.678179 2.26406 -0.720062
119 1 13.1586 3.302 6.55006 -1.87264 0.462313 -0.927007
120 1 14.8579 4.87631 8.28453 0.959414 -1.11732 0.809255
121 1 0.0504278 6.52358 6.65527 -0.415115 0.739696 1.3104
122 1 1.68677 8.20983 8.35534 -0.521253 -0.40589 0.873658
123 1 3.3429 6.53995 6.75749 1.07683 -0.161451 -1.71016
124 1 4.91752 8.27943 8.32256 0.343512 1.18979 0.63946
125 1 6.71069 6.68406 6.60092 0.576638 -0.112006 -0.636554
126 1 8.2075 8.31472 8.33228 1.10115 0.475669 -1.05139
127 1 9.85701 6.63949 6.63064 -0.753417 0.0821472 -2.47053
128 1 11.4692 8.33992 8.20278 0.00230634 -0.160941 1.91974
129 1 13.1806 6.6382 6.61992 -0.745234 -0.422176 0.329439
130 1 14.9296 8.08679 8.34137 0.30172 1.27122 0.577571
131 1 0.0514319 9.8435 6.71175 -0.717548 0.3386 0.0435631
132 1 1.65577 11.5059 8.44442 -1.16637 -1.90186 1.00475
133 1 3.16028 9.89327 6.79332 0.916606 0.399793 -2.39293
134 1 4.93084 11.5707 8.22979 -2.34007 0.776712 0.945021
135 1 6.57216 10.0204 6.67253 -2.64146 -0.725599 -3.64115
136 1 8.25548 11.6589 8.34926 -1.68778 -1.08914 -2.61142
137 1 9.85145 9.98975 6.6705 0.0600045 -1.94923 0.871755
138 1 11.6477 11.54 8.1616 0.504498 3.0079 0.605954
139 1 13.2676 9.95718 6.62586 0.757322 -0.547087 -1.24862
140 1 14.9076 11.3722 8.32717 -2.10924 -0.337213 -0.993172
141 1 0.100325 13.2113 6.66259 -0.622976 -0.894044 1.73093
142 1 1.60651 14.8914 8.22156 0.79175 -0.0963919 -0.922903
143 1 3.34519 13.2065 6.66433 -0.133513 0.640654 -0.658721
144 1 4.89161 14.8958 8.25163 -0.629548 -0.587798 2.04693
145 1 6.57145 13.0867 6.5832 -0.222774 -0.830159 0.08359
146 1 8.26457 14.7915 8.22793 0.779354 0.606049 -0.749696
147 1 10.0345 13.0858 6.59275 0.518118 -0.598886 -0.0969138
148 1 11.5429 14.9002 8.02678 0.640589 0.19071 1.28412
149 1 13.2907 13.2702 6.56774 -0.737946 1.28233 0.688085
150 1 14.799 14.7782 8.23277 0.174354 1.0076 1.87951
151 1 16.4004 0.0365508 9.80951 -0.577431 -0.541264 0.875886
152 1 1.70476 1.65056 11.4353 1.04105 1.7568 0.725948
153 1 3.2397 16.5158 9.85053 1.43492 1.46675 -1.77887
154 1 4.9842 1.66595 11.548 -0.978677 2.57048 -0.196718
155 1 6.56443 16.4985 9.74855 2.63884 -0.0591697 3.2276
156 1 8.16199 1.50247 11.52 -0.0930797 0.240004 -0.635466
157 1 9.90017 16.4466 9.79535 0.103708 -0.899989 1.79107
158 1 11.4204 1.48549 11.6689 -0.416525 -0.665546 -0.094013
159 1 13.1193 16.4724 9.82425 0.37455 2.01644 1.7943
160 1 14.824 1.51749 11.437 -1.42466 3.26625 1.8496
161 1 0.0359065 3.14917 9.8248 -1.90409 0.156895 2.09066
162 1 1.69311 4.90304 11.4803 1.23455 -0.0866744 0.312576
163 1 3.36601 3.29758 9.93352 0.195124 1.24782 0.927548
164 1 5.01353 4.85866 11.5982 2.22002 -1.74814 0.087385
165 1 6.62652 3.24585 9.79705 -0.241106 -1.31439 -0.480162
166 1 8.35128 4.94818 11.6203 0.733127 2.33027 -0.765699
167 1 9.88383 3.20446 10.0529 0.37457 -0.642861 -1.26625
168 1 11.582 4.99997 11.6782 0.166464 0.336388 -2.88515
169 1 13.2014 3.33259 9.95233 2.05014 -1.58455 0.766188
170 1 14.9985 4.85986 11.5323 -0.847772 -0.987334 0.296514
171 1 0.01571 6.53751 9.9022 -1.16543 -2.51662 0.394022
172 1 1.61847 8.2573 11.7017 -0.314357 -1.44085 -0.682278
173 1 3.21563 6.58106 10.0575 0.635176 -2.072 -0.942556
174 1 4.91117 8.32395 11.6707 1.00759 1.67775 0.447418
175 1 6.64656 6.53381 9.98512 0.520813 2.16662 3.01724
176 1 8.21394 8.25901 11.5956 1.44853 -2.23864 -0.00566944
177 1 9.88859 6.55041 9.89992 -0.377076 1.02174 -1.36185
178 1 11.4653 8.32476 11.5409 0.752441 -3.49476 1.56434
179 1 13.1712 6.54258 10.0286 0.590614 -0.926409 -0.854783
180 1 14.856 8.27296 11.5795 1.75045 -1.88219 1.43064
181 1 16.4576 9.75618 9.8552 0.22311 0.521445 -0.707963
182 1 1.66191 11.5578 11.6116 0.0753537 -0.691812 -0.159712
183 1 3.19963 9.81756 10.0758 1.24372 1.00732 -1.39642
184 1 4.9249 11.6599 11.6291 -0.373249 0.792746 0.531829
185 1 6.53794 9.94663 9.9773 -0.68768 0.755923 0.795286
186 1 8.1791 11.6173 11.6589 -0.353625 -0.272313 -0.73257
187 1 9.98426 9.8827 9.91867 1.33394 0.612917 0.140037
188 1 11.5377 11.5563 11.6705 1.21549 -0.152818 0.311374
189 1 13.1507 9.84837 9.86517 -0.610341 0.657838 0.221669
190 1 14.9292 11.4925 11.4868 0.230286 0.45079 -1.87668
191 1 16.5146 13.1761 9.84539 -0.211204 0.789121 0.518828
192 1 1.54384 14.8896 11.4405 0.0296854 -0.382303 2.45562
193 1 3.31835 13.1455 9.85727 -0.257202 -0.133854 1.26748
194 1 4.88105 14.9528 11.6391 -0.258039 -0.750351 0.208843
195 1 6.48634 13.1884 9.97291 3.37726 2.51729 -1.07718
196 1 8.30506 14.73 11.4082 0.880489 1.25526 0.738856
197 1 9.99026 13.1643 9.85814 -0.172995 0.445152 -1.14663
198 1 11.5826 14.842 11.5071 2.8134 -0.264882 0.498795
199 1 13.1385 13.078 9.8336 0.663733 1.43373 -1.10803
200 1 14.8161 14.7323 11.3917 -1.41142 2.98571 1.81549
201 1 16.4069 16.3537 13.1026 -0.94955 1.00821 -0.906927
202 1 1.59843 1.54902 14.7031 0.0121017 0.037135 1.88736
203 1 3.22521 16.4918 13.1597 -0.842589 0.635166 1.37738
204 1 4.89037 1.64989 14.8526 0.260756 0.608079 -0.177439
205 1 6.63262 16.4729 13.2463 0.714731 0.841995 0.153278
206 1 8.17991 1.67553 14.9157 -0.746285 0.631 2.45041
207 1 9.84304 16.3785 13.1348 1.61387 -1.1401 -0.177895
208 1 11.4196 1.60721 14.8629 0.395671 0.639403 2.97735
209 1 13.2085 16.4334 13.1042 -0.294508 1.44302 1.16701
210 1 14.8235 1.64313 14.6935 0.413695 -1.22414 1.85807
211 1 0.0295702 3.28279 13.1459 -1.23519 0.835844 1.77337
212 1 1.75773 5.00526 14.8225 0.18445 0.97623 -1.17094
213 1 3.29058 3.27125 13.09 0.891122 1.68572 -0.813898
214 1 5.00803 4.97752 14.8561 0.385665 -0.29788 0.178824
215 1 6.54135 3.17715 13.2028 -0.950215 2.23794 2.22507
216 1 8.23376 4.96342 14.9553 -1.58169 -0.995709 -0.373623
217 1 9.84225 3.31489 13.3527 0.267704 -2.16173 2.64753
218 1 11.5934 4.95636 14.7995 1.15573 -0.166354 2.50636
219 1 13.2288 3.27141 13.2169 1.08721 -0.867367 0.762547
220 1 14.9158 4.88928 14.8478 0.663013 -0.2075 -0.166802
221 1 0.0434689 6.64334 13.3154 -0.67683 -1.44807 -0.541888
222 1 1.64922 8.3331 15.0155 -1.02305 -1.25821 -1.47206
223 1 3.2788 6.64755 13.2617 -1.41654 -0.345735 -1.55559
224 1 4.87619 8.3004 14.9549 1.10627 -0.637425 -0.35847
225 1 6.56847 6.50299 13.1572 0.465114 -1.1014 -1.41315
226 1 8.09287 8.2287 14.7606 -0.232226 -0.0373435 -1.03867
227 1 9.8676 6.67908 13.2069 0.770633 3.57998 0.660752
228 1 11.5123 8.1887 14.8296 -0.607234 0.646476 -1.0624
229 1 13.3176 6.59915 13.1437 -0.833071 -0.1378 1.654
230 1 14.8476 8.27936 14.8821 -0.213608 -2.20325 0.234411
231 1 16.4624 9.98266 13.2513 0.337656 -1.3464 -1.26103
232 1 1.67235 11.622 14.8719 -0.779629 1.6029 1.32846
233 1 3.18565 9.94861 13.3785 2.60808 0.913145 0.837149
234 1 5.12727 11.544 14.9229 -1.98999 1.69858 0.201532
235 1 6.59454 9.85557 13.2027 1.25007 0.472584 -0.51488
236 1 8.29312 11.6156 14.8413 0.334706 -0.754009 0.153926
237 1 9.79491 9.79454 13.1657 -1.35227 -0.822787 1.55551
238 1 11.5742 11.4854 14.9691 -1.09517 0.854673 1.17729
239 1 13.1152 9.88148 13.2434 -1.69468 0.795408 0.171245
240 1 14.7584 11.5242 14.9751 0.502122 0.860065 0.750949
241 1 16.3604 13.1063 13.1492 1.31925 0.607889 0.746663
242 1 1.56714 14.8218 14.7804 0.209317 0.145335 -0.436624
243 1 3.37158 13.2978 13.2568 -1.25053 -0.320748 -0.230387
244 1 4.97308 14.9028 14.7986 0.511165 0.330249 0.969319
245 1 6.69944 13.3459 13.2483 -0.41036 0.187247 0.361399
246 1 8.27809 15.0134 14.9387 1.02366 0.759168 0.452838
247 1 9.86016 13.3469 13.2183 1.57989 1.74663 0.91335
248 1 11.4889 14.9289 14.7888 1.08331 -0.354898 1.9041
249 1 13.1699 13.2141 13.301 -0.146873 -0.181171 0.295054
250 1 14.7716 14.8456 14.784 0.555841 3.11499 0.798637
