ITEM: TIMESTEP
40
ITEM: NUMBER OF ATOMS
250
ITEM: BOX BOUNDS pp pp pp
0.0000000000000000e+00 1.6520000000000000e+01
0.0000000000000000e+00 1.6520000000000000e+01
0.0000000000000000e+00 1.6520000000000000e+01
ITEM: ATOMS id type x y z vx vy vz
1 1 16.4146 0.11353 0.113625 2.02319 1.23418 -0.164252
2 1 1.73918 1.74084 1.70687 0.327076 1.42298 0.917356
3 1 3.32541 0.0521247 16.4923 -0.61838 -0.42082 1.12075
4 1 4.92683 1.70593 1.80592 1.35319 -1.25544 -1.21332
5 1 6.61904 16.3862 16.471 0.725383 1.08317 1.03768
6 1 8.25071 1.55728 1.78201 -0.585439 -0.269422 0.695061
7 1 9.9285 16.4335 0.112587 -0.346452 1.38236 -0.333512
8 1 11.5284 1.64008 1.78592 0.454685 -0.775008 1.6272
9 1 13.0727 0.0710754 0.249389 0.954388 -0.68263 0.507238
10 1 14.8406 1.72262 1.80269 1.95805 -1.52195 -0.116522
11 1 0.0624426 3.36795 16.4774 -1.64934 -0.556367 -1.7227
12 1 1.85107 4.87283 1.60372 -1.34914 -0.936695 0.928909
13 1 3.38021 3.21109 16.4782 -0.636695 -0.334484 0.356022
14 1 5.08561 4.93842 1.67868 1.08903 0.818975 -0.907728
15 1 6.6924 3.33215 0.0748145 0.897566 -0.0816326 -2.2897
16 1 8.27164 5.03919 1.70001 -0.80987 0.730196 0.44408
17 1 9.79431 3.34956 0.148694 1.14764 -1.9061 -0.134811
18 1 11.6482 4.96095 1.71947 -1.58436 0.328238 -0.851503
19 1 13.1926 3.33485 0.178509 -0.554812 -0.418406 1.96861
20 1 14.9951 4.96973 1.57181 0.72566 1.4644 0.862816
21 1 16.5056 6.50486 16.2559 1.19055 -0.692112 -0.783606
22 1 1.67206 8.11031 1.53008 0.353202 1.00469 -0.637492
23 1 3.30464 6.51294 16.2203 -0.767862 0.0734113 1.43131
24 1 4.83166 8.21085 1.45922 -0.281286 0.949238 0.763612
25 1 6.70582 6.65017 16.4377 -1.58846 1.87352 -1.29591
26 1 8.258 8.39414 1.48469 -1.78556 0.14243 0.931695
27 1 9.83103 6.53429 0.0789451 -0.976051 1.90738 0.181809
28 1 11.569 8.20029 1.52748 0.419377 -0.405633 -1.32778
29 1 13.1969 6.51237 0.0186393 -1.11464 -0.475491 -1.67194
30 1 15.0772 8.14463 1.52505 0.311629 0.484586 0.651729
31 1 0.00290252 9.67749 16.3625 -0.876002 -0.246032 0.00183532
32 1 1.49007 11.4932 1.60244 1.13633 -0.900241 -1.11675
33 1 3.13547 9.73811 16.3353 0.99218 0.12187 -2.33482
34 1 4.61042 11.5389 1.59533 1.78579 0.854495 0.66992
35 1 6.43371 9.91602 16.437 -0.356767 1.51464 -0.418972
36 1 8.15343 11.5235 1.67391 -0.643027 0.508089 -0.127171
37 1 9.86614 10.0756 16.4845 -0.809126 1.02335 -1.07579
38 1 11.7456 11.5846 1.64393 -1.18783 -1.11039 -0.646305
39 1 13.2984 9.71848 16.4779 -0.603386 -0.601344 0.576777
40 1 15.1013 11.4533 1.57777 -1.35602 0.560235 1.00724
41 1 0.0194269 13.1696 0.0558515 0.206498 -0.380371 0.847357
42 1 1.5127 14.9159 1.64422 1.21927 0.262209 0.184459
43 1 3.13586 13.2568 0.0249968 -0.718699 -1.91972 1.38347
44 1 4.81013 14.7224 1.63642 0.291726 0.459901 0.646437
45 1 6.34406 13.2927 16.4536 1.15631 -1.00235 0.115618
46 1 8.07136 14.7362 1.68667 0.456945 -0.388937 0.522474
47 1 9.95184 13.2213 0.0245152 -1.96674 -0.75947 -0.570274
48 1 11.6843 14.8578 1.70159 -2.04084 -1.83729 -0.0644414
49 1 13.4112 13.2702 0.0715658 -1.42291 -0.61036 -0.926455
50 1 14.7952 14.9422 1.78186 -1.1403 0.283611 -0.870726
51 1 16.4172 16.5109 3.36001 1.50385 0.668601 1.09842
52 1 1.62229 1.72536 5.12699 0.444253 0.551705 -0.0811208
53 1 3.22259 0.0872878 3.44971 0.173002 -3.68411 2.04421
54 1 4.94442 1.69078 4.91817 -1.79699 -0.619757 1.15048
55 1 6.46424 16.3596 3.28231 0.782754 1.46009 -0.432095
56 1 8.17661 1.49127 4.78429 0.98353 2.19767 1.50359
57 1 9.82151 16.4272 3.26822 -0.821215 -1.86207 -0.71739
58 1 11.5427 1.67908 4.80226 -0.732515 -0.691183 2.43321
59 1 13.2445 0.051237 3.46232 1.6835 0.202348 -1.81111
60 1 14.932 1.79094 5.04698 -0.506065 0.191603 0.118141
61 1 0.171156 3.29124 3.29489 -1.67128 -0.137179 0.721665
62 1 1.82285 4.92815 5.02659 0.0568885 0.87094 0.978265
63 1 3.33511 3.28656 3.33339 -0.422838 2.06472 -0.455408
64 1 5.0031 4.98018 5.01965 -0.553997 0.432904 0.392709
65 1 6.63879 3.36124 3.30195 -1.01519 -0.412184 -1.778
66 1 8.30044 5.23338 4.85949 -1.60004 -0.573755 -1.3423
67 1 9.80306 3.29018 3.24252 -0.0714568 -1.05733 0.461997
68 1 11.605 5.00098 4.78726 -0.710503 1.4 0.303898
69 1 13.3384 3.34083 3.41809 -2.89477 2.34733 0.42261
70 1 15.0611 4.94615 4.94062 -0.528506 -1.38148 0.743541
71 1 0.151008 6.57417 3.23201 -0.227563 -0.503199 1.95651
72 1 1.5898 8.23875 4.98205 -2.17777 0.692616 1.26089
73 1 3.318 6.68979 3.27647 -0.646357 -1.01387 -0.145056
74 1 4.79582 8.39639 4.94415 -0.3275 1.66812 -0.419211
75 1 6.5537 6.82234 3.23896 -1.94224 -1.66125 0.713242
76 1 8.16985 8.3906 4.88428 2.41665 -0.105932 -2.23949
77 1 9.86315 6.71184 3.21968 0.843009 -0.399928 0.438664
78 1 11.6472 8.3125 4.82282 1.02002 1.53656 -0.13665
79 1 13.3722 6.57898 3.20753 0.833733 -0.0141251 -0.715314
80 1 14.8786 8.19775 5.00605 1.72229 -2.29598 -1.00712
81 1 0.00106057 9.72794 3.26864 1.60769 0.495471 -0.859633
82 1 1.55904 11.5709 4.96445 -0.265872 -1.38624 0.827549
83 1 3.12658 9.84292 3.26175 1.59606 2.36913 -1.14316
84 1 4.66387 11.5567 4.98659 -1.55287 0.774125 -1.50961
85 1 6.41734 9.87985 3.26429 0.284124 -0.958851 0.313701
86 1 8.23883 11.5199 4.90914 -2.77095 0.371885 -0.854605
87 1 9.77248 9.88429 3.16235 -0.165768 -0.631548 -0.663224
88 1 11.6415 11.4593 4.85609 -0.691594 0.318524 1.71611
89 1 13.3162 9.87787 3.18941 -0.798732 -0.477983 0.118696
90 1 14.84 11.4454 4.9384 2.11893 0.286817 2.0278
91 1 16.4844 13.2183 3.24523 -0.546866 -0.279832 1.07001
92 1 1.6221 14.8781 5.02991 -1.2459 -0.691002 1.02295
93 1 3.10488 13.1817 3.33358 -0.710521 -0.992875 1.2563
94 1 4.84078 14.8558 4.98126 -0.704368 -0.821771 -0.0108519
95 1 6.38174 13.1083 3.27759 0.81369 0.831022 -1.9352
96 1 8.13378 14.6656 4.90078 0.137032 -0.639132 1.29692
97 1 9.87374 13.0866 3.22982 0.232356 0.0167668 1.62283
98 1 11.4569 14.804 4.90169 1.75797 0.659869 -1.20345
99 1 13.2068 13.1329 3.26056 0.406501 -0.939011 1.43865
100 1 14.805 14.7643 5.07725 -0.625846 1.55026 0.525416
101 1 16.4568 0.0320167 6.81556 1.54783 3.27832 -0.0176443
102 1 1.6237 1.82158 8.4175 -0.135773 -2.99665 0.555624
103 1 3.23076 0.17251 6.69402 0.790506 -0.470267 1.77286
104 1 4.90232 1.75933 8.29543 0.718789 -1.92839 -1.40971
105 1 6.54952 0.0458184 6.52608 1.33298 -1.48081 -0.358416
106 1 8.2586 1.66619 8.06741 -0.321447 -0.859743 1.03602
107 1 9.83723 16.4864 6.3931 0.612321 -0.242486 -1.56933
108 1 11.4901 1.68135 8.10382 0.201892 -0.954043 -0.142779
109 1 13.0703 0.036299 6.61814 0.092019 -1.78135 0.358948
110 1 14.8027 1.79506 8.31394 0.686072 -0.108872 -2.10419
111 1 0.0684924 3.37088 6.70268 -0.985503 1.19975 -1.05586
112 1 1.75713 4.83619 8.37761 0.0245486 0.000950698 0.476021
113 1 3.29321 3.30937 6.62977 -0.136926 2.98257 0.691547
114 1 4.94262 4.94138 8.37121 -0.181125 0.618392 0.377756
115 1 6.67955 3.39662 6.39617 -0.169684 -2.01925 -0.35596
116 1 8.3842 4.99649 8.09658 -2.54136 -0.632902 2.26705
117 1 9.82675 3.40169 6.25773 0.0625644 -0.035097 1.30676
118 1 11.5199 4.90058 8.18384 0.250638 -1.1282 -1.69405
119 1 13.2665 3.34264 6.49667 -0.86024 -0.135384 0.944517
120 1 14.7909 4.96993 8.25159 0.436318 -0.666329 2.88926
121 1 0.0468813 6.5708 6.62874 -0.920963 -0.61285 2.67096
122 1 1.56157 8.35438 8.26291 -0.00238242 0.0244881 -1.32576
123 1 3.34203 6.56626 6.67904 -0.0259283 -0.146934 -1.6776
124 1 4.90257 8.32408 8.26995 -0.262713 0.181811 -0.262205
125 1 6.61692 6.55485 6.61161 0.672456 2.83404 -0.105592
126 1 8.36119 8.26144 8.14782 0.516796 1.43433 1.57199
127 1 9.95774 6.58559 6.44723 0.468347 1.40589 -0.496566
128 1 11.6149 8.16354 8.33914 0.861378 0.159062 -1.87927
129 1 13.1753 6.55674 6.54578 1.05156 -0.286749 -0.165325
130 1 14.8417 8.10194 8.22168 -0.103016 1.57759 2.16872
131 1 16.4194 9.96284 6.60765 2.11933 -1.60452 0.498338
132 1 1.60824 11.6416 8.37602 0.160651 1.3266 -0.436232
133 1 3.05781 9.94909 6.65885 1.93582 -2.74309 2.83405
134 1 5.01236 11.6189 8.29343 2.5293 0.243097 -1.98789
135 1 6.62892 9.99446 6.58657 0.460121 0.0359162 -0.569585
136 1 8.56078 11.4142 8.23248 -0.246998 -0.122533 2.02687
137 1 9.95465 9.84469 6.5068 -0.181673 1.24962 0.0568794
138 1 11.6416 11.5049 8.37237 0.810422 0.793699 1.51966
139 1 13.2205 9.84407 6.64932 -0.134975 -0.430388 -2.35825
140 1 14.697 11.6274 8.35732 0.712698 -1.75182 0.169389
141 1 16.4824 13.1602 6.68193 -2.46261 0.00693883 -0.897153
142 1 1.64591 14.7957 8.32029 0.599011 0.201071 1.0729
143 1 3.20412 13.2507 6.70916 -1.65357 -1.21263 -1.37117
144 1 4.96896 14.8896 8.2907 0.0112546 -1.45114 -0.752584
145 1 6.57383 13.2315 6.57111 -1.31885 -0.017409 -1.01057
146 1 8.24889 14.827 8.11728 1.35728 -0.405 0.411306
147 1 9.8818 13.0861 6.54097 0.363295 0.0298794 -2.77621
148 1 11.6179 14.8739 8.20766 -1.77248 -0.983501 -0.355136
149 1 13.1295 13.0642 6.58747 0.230789 1.34753 1.69023
150 1 14.7603 14.9064 8.2449 1.389 1.22688 1.17728
151 1 16.449 0.137362 9.90003 -0.227684 -0.393675 1.33846
152 1 1.63644 1.64984 11.7215 1.23603 0.911788 -0.539804
153 1 3.32092 16.516 9.98102 0.499199 1.2173 1.29725
154 1 4.94794 1.55411 11.581 1.69621 1.41817 -0.458968
155 1 6.69123 0.0418094 9.85654 0.115228 -0.800965 0.845424
156 1 8.26725 1.60349 11.4648 2.14356 -0.0502766 -0.384607
157 1 9.93863 0.00582687 9.73163 1.77422 1.79417 -0.670899
158 1 11.4332 1.56549 11.4842 1.25107 1.37249 0.965101
159 1 13.1892 0.0222015 9.74317 1.9567 -0.754105 1.04146
160 1 14.7956 1.65685 11.5843 -0.729524 2.41809 -1.76956
161 1 16.5045 3.3399 10.1125 -0.286695 -1.4563 -0.972919
162 1 1.68791 4.89909 11.657 -2.24378 0.910613 -1.68314
163 1 3.43422 3.37864 10.184 -0.437068 0.728495 -2.59232
164 1 5.13417 5.02831 11.5394 -0.374437 -2.13419 1.35589
165 1 6.7031 3.435 9.91273 -1.14501 -0.818492 -2.21916
166 1 8.28174 4.9262 11.5539 -0.824539 2.40089 0.0348488
167 1 9.89334 3.20794 9.87252 0.0545079 0.239148 0.560698
168 1 11.425 4.9991 11.5764 -0.925384 -0.331906 -1.01776
169 1 12.9896 3.27391 9.9188 0.659054 1.12478 -1.38999
170 1 14.616 4.95194 11.624 0.130191 -1.30623 1.08594
171 1 16.473 6.43308 9.89547 1.77214 0.338986 0.203865
172 1 1.66896 8.2904 11.3947 -0.889397 -2.45499 -1.36651
173 1 3.47012 6.67082 9.97116 -1.22487 0.529812 0.0115856
174 1 5.1359 8.36151 11.4508 -0.983049 -1.52674 1.392
175 1 6.7299 6.55518 9.77646 1.96004 1.01074 1.07046
176 1 8.28992 8.37067 11.6658 2.25015 0.644642 0.455286
177 1 9.96015 6.57192 9.90963 0.360595 -0.786854 -1.79234
178 1 11.543 8.16937 11.6244 -1.37486 -0.0930806 -0.745938
179 1 13.169 6.53252 9.98107 1.70992 -1.01661 0.492235
180 1 14.8159 8.07582 11.5273 -3.0137 1.20075 1.26329
181 1 16.4746 9.91927 9.91207 0.236558 0.168044 0.997966
182 1 1.74328 11.5588 11.5506 -1.1433 -0.137515 0.403345
183 1 3.33789 10.014 9.90774 -0.464253 0.850149 0.259207
184 1 5.14601 11.6573 11.5498 -0.464696 -0.247585 -1.30165
185 1 6.79761 10.0179 9.85905 -2.09427 -0.733946 0.678978
186 1 8.3777 11.6167 11.5793 0.71645 1.79847 -0.728867
187 1 9.97646 9.88046 9.99387 -0.583302 1.16462 0.411408
188 1 11.8134 11.5897 11.7016 -0.825938 0.573888 1.42456
189 1 13.269 9.82943 9.95869 -1.43358 0.524475 -0.988109
190 1 14.8262 11.6257 11.635 1.99672 -0.27191 -1.47391
191 1 0.0608289 13.2398 10.0075 -0.407765 1.32661 -1.92616
192 1 1.67537 14.8557 11.5174 -1.74692 3.05073 -0.0557641
193 1 3.41198 13.2367 9.91313 -1.70914 -0.276106 1.11784
194 1 5.05795 14.9244 11.4559 -0.565286 0.753209 1.78254
195 1 6.84966 13.2502 9.98026 -1.63812 0.702686 0.323234
196 1 8.39136 14.9393 11.4759 0.445914 -1.77826 -1.44139
197 1 10.0599 13.2655 9.90126 -0.860715 1.80547 0.162705
198 1 11.7234 15.0147 11.6275 -1.90865 0.122804 -0.968638
199 1 13.2361 13.3285 10.0173 -0.723431 -1.53092 -1.95008
200 1 14.9877 15.0965 11.6196 -3.06334 -2.55004 1.56014
201 1 16.4939 0.0925236 13.3202 -0.915896 0.121663 1.76844
202 1 1.65856 1.67752 14.9355 -0.222928 2.20074 -1.21079
203 1 3.29055 16.4511 13.2675 0.908703 1.09744 0.589695
204 1 5.02154 1.59594 14.9479 0.422818 -0.0499751 0.629898
205 1 6.6916 16.5141 13.2628 1.47447 -0.687079 -0.886789
206 1 8.16268 1.60204 14.9513 -1.04508 -1.71869 0.238752
207 1 9.93396 16.463 13.2901 -0.422497 -2.15891 0.506654
208 1 11.4689 1.5789 15.0255 1.27772 1.57905 0.0265857
209 1 13.1386 0.027677 13.4087 -1.30648 1.7869 -1.6607
210 1 14.8188 1.75053 15.0385 0.708638 -1.93518 0.837832
211 1 16.5071 3.20715 13.2297 0.557735 1.62743 -2.06116
212 1 1.67497 4.85128 14.694 1.59344 0.957875 0.238487
213 1 3.38853 3.27362 13.293 0.363155 -0.857217 -1.3557
214 1 5.12614 4.93254 14.7324 -1.72034 0.258243 -1.29102
215 1 6.624 3.25697 13.0972 1.02319 -1.00643 0.181855
216 1 8.33861 4.90306 14.8567 0.85496 0.176724 0.378223
217 1 9.89225 3.21545 13.1602 -0.544373 0.780086 2.31528
218 1 11.4292 4.95967 14.8358 -0.490205 -0.0880048 -0.257332
219 1 13.0781 3.12696 13.3711 -0.0615909 -0.606099 -0.0298457
220 1 14.7237 4.92734 14.9301 0.00816611 -1.80795 -0.677413
221 1 16.484 6.46731 13.0031 1.50246 0.509164 0.831349
222 1 1.53243 8.13878 14.5468 1.52794 -1.00552 0.732684
223 1 3.43389 6.59845 13.0504 1.07531 -0.6178 0.403378
224 1 5.03216 8.27714 14.7708 1.80523 1.7594 -1.22469
225 1 6.72641 6.6811 13.2032 0.618889 1.06003 -0.382231
226 1 8.3337 8.26457 14.9198 0.089899 -0.545559 1.37188
227 1 9.83627 6.61499 13.3259 -0.321832 -0.125513 0.502972
228 1 11.438 8.32938 15.0115 2.23063 0.340043 -2.06713
229 1 13.1173 6.53314 13.3032 0.595945 -1.23292 -1.6819
230 1 14.9523 8.11695 14.749 -0.364629 -0.929381 -0.981945
231 1 0.0500387 9.88085 12.9694 0.121499 -0.894899 1.55866
232 1 1.56501 11.5432 14.8318 1.21377 1.095 -1.19772
233 1 3.32629 9.91617 13.0986 0.324576 0.174972 -0.894677
234 1 4.93189 11.6104 15.0123 -0.913692 -1.29553 -0.678949
235 1 6.59455 10.057 13.2568 2.00819 1.4333 -0.888121
236 1 8.29059 11.6892 14.8827 2.382 -1.03282 1.5767
237 1 9.97057 9.98295 13.4362 -1.18122 -0.622149 -0.744529
238 1 11.6244 11.7015 14.9215 0.819722 0.79657 0.198263
239 1 13.208 9.89884 13.2926 2.49154 -0.0198733 -0.208745
240 1 14.98 11.5267 14.8094 0.294615 1.06488 2.3913
241 1 16.5174 13.3012 13.2611 0.793251 0.192349 -1.64031
242 1 1.62131 15.0066 15.0708 0.162822 -1.71213 -1.27423
243 1 3.3476 13.3432 13.3484 1.69921 0.404817 -2.96971
244 1 4.94235 14.9007 14.8812 -1.16132 -0.556877 -0.207022
245 1 6.7931 13.3221 13.2701 -0.757128 -0.630763 0.551148
246 1 8.32544 14.9189 14.927 -0.9323 -2.32093 2.72439
247 1 10.1124 13.2441 13.2639 0.0627383 -0.206996 1.25453
248 1 11.7056 14.9097 15.0657 -0.828252 2.23694 0.440948
249 1 13.4012 13.4088 13.3357 -1.78403 -0.641097 -1.26483
250 1 14.9076 15.0089 15.0157 0.623613 -0.675707 -1.31754
