ITEM: TIMESTEP
450
ITEM: NUMBER OF ATOMS
250
ITEM: BOX BOUNDS pp pp pp
0.0000000000000000e+00 1.6520000000000000e+01
0.0000000000000000e+00 1.6520000000000000e+01
0.0000000000000000e+00 1.6520000000000000e+01
ITEM: ATOMS id type x y z vx vy vz
1 1 16.4934 16.4293 16.2758 -1.35562 -1.30988 1.27475
2 1 1.61736 1.52084 1.52422 -1.14922 0.580158 3.14937
3 1 3.38906 16.4574 0.00847749 -0.529615 -0.421613 1.09052
4 1 5.00722 1.69753 1.65428 1.0182 -0.582746 1.22707
5 1 6.59386 0.0222755 16.4874 2.27989 -2.73331 -1.40379
6 1 8.22348 1.75019 1.62177 -2.34935 -1.31598 0.847848
7 1 9.90606 0.0404503 16.4523 0.853599 -1.66316 -1.09923
8 1 11.6458 1.6749 1.67123 -0.590356 -0.951855 0.474191
9 1 13.1418 16.4954 16.37 0.0977506 0.318896 0.00823512
10 1 14.8596 1.74006 1.52681 0.96193 -0.357378 0.828903
11 1 0.00624535 3.21265 16.3896 0.0629337 1.36265 0.754356
12 1 1.62695 4.93664 1.70897 1.15317 0.750917 -1.6258
13 1 3.1773 3.35311 0.0850382 -1.51923 -0.298054 0.176468
14 1 4.99775 5.07261 1.77861 1.21789 -0.376017 0.688046
15 1 6.50764 3.31199 16.4237 -0.490212 1.38849 -0.375062
16 1 8.31575 4.8854 1.64887 -1.67867 1.72334 1.26478
17 1 9.96432 3.33088 16.5138 -0.714318 -2.10059 -0.116349
18 1 11.6379 4.99951 1.5955 0.251993 0.990765 -0.119238
19 1 13.2147 3.35836 16.5099 -0.1022 0.44043 1.24341
20 1 14.9236 4.96104 1.51466 2.81046 -1.01096 -0.708138
21 1 0.00680033 6.77913 0.123948 -0.393525 -0.173615 -1.3705
22 1 1.72371 8.41814 1.69251 -0.178516 -1.41388 -0.544332
23 1 3.27321 6.67002 0.156485 1.10342 -1.02128 -2.7054
24 1 5.0101 8.28193 1.79936 1.4211 0.852816 0.632994
25 1 6.58931 6.62869 0.00138171 0.64332 -1.66746 -0.171334
26 1 8.37731 8.18401 1.63867 1.44777 2.75112 -1.54331
27 1 9.92342 6.5079 0.0203954 -0.482812 1.75876 -0.618191
28 1 11.4335 8.25027 1.60432 -0.0964 -0.42879 1.71219
29 1 13.2177 6.68353 16.5 0.637922 0.617157 1.05906
30 1 14.8645 8.39795 1.75675 0.448204 0.190464 -0.809041
31 1 16.4699 9.97675 0.151614 1.3748 -1.30656 -2.13331
32 1 1.69636 11.5739 1.74441 -0.461078 -2.8335 -1.02994
33 1 3.34177 9.95756 0.117168 -1.76514 -0.0155979 -1.52914
34 1 5.19309 11.6574 1.65292 -3.37212 -0.756803 1.15071
35 1 6.62305 9.89437 0.0408972 0.989167 1.36247 -0.268067
36 1 8.35292 11.5231 1.68826 -2.23299 1.72525 -0.42333
37 1 9.87215 9.89408 16.4165 -0.966046 2.79339 0.452394
38 1 11.5104 11.6406 1.75003 1.48206 -1.54498 1.17994
39 1 13.1282 10.0209 0.101917 1.72449 -0.239538 -1.74178
40 1 14.9597 11.7642 1.80082 0.0309011 -1.09884 -1.13865
41 1 0.00724884 13.2249 16.4662 2.11312 0.394571 1.34418
42 1 1.78662 14.8156 1.68893 0.0987482 1.86879 0.714462
43 1 3.42606 13.2145 0.0390878 -1.50422 -0.387581 1.19126
44 1 5.09461 14.8296 1.66921 0.000365698 1.28259 -0.528146
45 1 6.67933 13.3186 16.4598 -0.272866 -0.214205 -0.609627
46 1 8.46497 14.9696 1.62383 0.48608 -4.67937 -0.727745
47 1 9.90888 13.1782 0.00380742 -0.0770724 -0.8788 -0.0971112
48 1 11.5861 14.995 1.5592 -1.52895 -1.21507 -0.847357
49 1 13.1629 13.1897 16.5139 1.75758 -0.569087 0.768779
50 1 14.9424 14.9213 1.52686 -2.09387 0.594562 -0.1161
51 1 16.4238 0.131304 3.22985 0.197026 0.971088 -0.211083
52 1 1.65578 1.71066 4.91963 0.226687 2.06423 0.926265
53 1 3.37691 16.5085 3.23847 1.13171 0.561313 -0.106568
54 1 4.91913 1.66775 4.99356 -0.651707 -0.649442 -0.278828
55 1 6.67243 0.111108 3.3336 -1.76786 0.511168 -0.148296
56 1 8.25691 1.66285 4.84759 0.773618 0.977517 -0.602904
57 1 10.0703 16.5093 3.25153 -1.19969 0.84403 -0.920401
58 1 11.4864 1.68762 5.04273 1.73648 -1.56321 0.146968
59 1 13.1745 0.0117959 3.21574 1.35156 1.00133 0.90586
60 1 14.8294 1.73963 4.92738 1.15345 -0.770765 2.30369
61 1 16.4471 3.19968 3.16251 1.01788 -1.84291 0.914419
62 1 1.66634 4.93041 4.93813 1.47762 -1.96566 -1.45383
63 1 3.2979 3.26543 3.25518 0.945247 -1.86771 -0.0783076
64 1 4.98782 4.86293 5.04978 1.18207 1.56336 -0.858394
65 1 6.64797 3.34544 3.33108 -0.0362453 0.697375 2.09404
66 1 8.25231 4.89636 5.01454 -2.24841 -0.118728 -0.487466
67 1 9.88611 3.37998 3.34653 0.633747 -0.161087 0.42529
68 1 11.6479 4.98811 5.13712 -1.20818 -0.94813 1.06301
69 1 13.2563 3.32515 3.29706 0.276805 0.981426 1.07908
70 1 14.8165 4.98284 5.00396 2.30841 0.413435 -1.7144
71 1 16.4404 6.67585 3.37908 1.81906 0.344327 1.3254
72 1 1.70914 8.22187 5.00527 -1.54785 2.75611 1.3849
73 1 3.29375 6.59505 3.39234 -0.98792 -0.0717031 0.197702
74 1 5.02618 8.23262 4.98517 0.641936 0.369788 0.348477
75 1 6.70196 6.63403 3.33226 -0.610167 1.26695 1.38122
76 1 8.33653 8.22647 4.97828 2.31296 1.64105 -0.438459
77 1 9.96199 6.57836 3.25921 0.791015 -0.224304 -0.872907
78 1 11.567 8.33311 4.86816 -1.05505 0.34457 -0.557336
79 1 13.2381 6.58772 3.29467 0.253433 0.512466 -0.159101
80 1 14.7489 8.35526 4.88015 0.628165 0.666547 0.144635
81 1 0.117867 9.96804 3.36657 0.0658961 2.10004 0.312656
82 1 1.80563 11.6036 4.90809 0.471202 -2.0097 -0.0234683
83 1 3.40379 9.85742 3.36754 -0.251577 0.552514 1.2551
84 1 5.0533 11.5742 5.02331 -1.76771 0.00146677 0.636341
85 1 6.63669 9.93692 3.39803 -1.20041 -0.94865 0.784119
86 1 8.30156 11.5153 4.9879 -1.6738 -1.35774 0.640557
87 1 9.90145 9.93264 3.34132 -1.47408 1.50937 1.16312
88 1 11.5637 11.5642 5.14162 -0.300954 -0.297645 0.741662
89 1 13.1298 10.0789 3.44389 -1.27683 -1.72039 0.9909
90 1 14.913 11.6458 4.91814 -0.090665 -2.62975 -0.824237
91 1 0.0659449 13.3196 3.27009 -0.393223 -0.915131 1.51151
92 1 1.74058 14.7772 4.88811 0.111079 0.426589 0.69849
93 1 3.52017 13.1935 3.32183 0.0902378 -0.490196 0.608304
94 1 5.03802 14.9435 4.94866 -0.535259 1.10368 1.52298
95 1 6.70989 13.236 3.40055 -0.963495 -0.172943 0.888404
96 1 8.28852 14.9336 4.88862 -1.93725 -2.34384 0.755812
97 1 10.01 13.2661 3.39322 -1.22882 0.391745 0.750146
98 1 11.6508 15.0158 4.90918 0.626943 -0.755756 1.28017
99 1 13.2174 13.3954 3.31241 0.0742765 0.00526198 0.390787
100 1 14.8756 14.9589 4.88095 -1.48747 0.510327 1.73938
101 1 16.4224 16.4682 6.57673 -0.0336751 -0.769265 -0.110381
102 1 1.56286 1.59555 8.21217 0.983499 1.11977 0.807339
103 1 3.2965 16.4014 6.61475 0.0997407 1.18305 1.03885
104 1 4.90049 1.57617 8.22453 -0.899933 -0.956283 -0.700545
105 1 6.69502 16.5058 6.53597 0.518136 0.363229 -0.234376
106 1 8.26633 1.62615 8.32483 -0.868452 0.401555 -1.61665
107 1 9.85033 0.0207539 6.59809 -1.28697 -0.538748 -1.43663
108 1 11.5995 1.56339 8.31781 0.176951 -1.12106 -0.333493
109 1 13.1952 0.025578 6.54633 -1.83368 -0.920289 1.17682
110 1 14.8465 1.4741 8.17006 -0.478262 -0.700204 -0.621901
111 1 16.4334 3.24004 6.5401 0.268229 0.733172 1.17871
112 1 1.66167 4.98243 8.1985 -0.109969 -0.827763 1.90605
113 1 3.32022 3.30985 6.59545 0.205426 1.06042 0.675524
114 1 4.97715 4.87174 8.28961 -0.368998 -0.445162 0.808784
115 1 6.59154 3.30011 6.68825 -0.0607059 -1.36692 0.0114089
116 1 8.23794 4.93123 8.37203 -0.186352 1.3066 -0.70786
117 1 9.85186 3.30462 6.84499 1.34618 0.833189 -0.910958
118 1 11.5355 4.97799 8.37527 -1.85218 -0.406707 0.865155
119 1 13.1907 3.33929 6.73666 0.422563 1.50691 0.402462
120 1 14.9139 4.97305 8.33486 -0.185802 -0.625544 -0.0171378
121 1 0.010782 6.58444 6.5822 2.04744 -0.794392 0.573709
122 1 1.67262 8.16549 8.32691 -1.45147 1.1474 0.181987
123 1 3.26095 6.6418 6.6469 0.802105 -2.40239 0.214345
124 1 4.84758 8.26384 8.41631 -0.477002 2.04257 -0.896713
125 1 6.62069 6.58084 6.70752 0.475503 0.206339 -0.361638
126 1 8.10579 8.33154 8.32885 -0.565044 0.574754 0.441092
127 1 9.97592 6.67425 6.69562 -0.672346 1.22414 0.445451
128 1 11.5954 8.28367 8.25566 0.703617 0.684562 1.75548
129 1 13.3075 6.6733 6.60174 0.306796 0.00652643 0.790352
130 1 14.8803 8.25459 8.27565 -0.59438 -0.154051 0.732642
131 1 16.4849 9.83162 6.53295 0.946618 2.60892 1.20439
132 1 1.7004 11.5066 8.23126 -1.75546 0.882482 0.476044
133 1 3.23103 9.94384 6.68255 1.19021 1.57096 2.1561
134 1 4.9318 11.4515 8.22838 -1.73892 1.54058 -1.26943
135 1 6.55426 9.90014 6.60062 0.0435103 1.19499 -0.349163
136 1 8.18424 11.5257 8.31208 1.98431 0.0595224 -0.8384
137 1 9.87157 9.9357 6.68246 0.299932 -1.86257 -1.03144
138 1 11.5948 11.5485 8.28457 -1.47488 0.93929 0.988382
139 1 13.2624 9.90607 6.6398 -1.26966 0.674421 -0.578752
140 1 14.8815 11.5512 8.17716 -0.705637 -1.48755 1.14947
141 1 0.101945 13.2313 6.55079 -0.810616 -1.80835 0.374436
142 1 1.65069 14.8363 8.12703 -0.470495 -3.57347 -0.165738
143 1 3.34163 13.2285 6.55388 0.525929 0.613469 0.0561931
144 1 4.93373 14.8567 8.30495 0.525103 -1.25136 0.244692
145 1 6.72189 13.2252 6.59498 1.04853 -0.610862 1.24205
146 1 8.24649 14.886 8.20208 1.82561 -1.65745 -0.71023
147 1 9.88207 13.2649 6.60061 0.924227 -2.32021 -0.7594
148 1 11.5616 14.8197 8.17665 -1.86344 0.256517 0.898871
149 1 13.287 13.2955 6.58844 -1.78085 0.550935 -0.213053
150 1 14.9355 14.767 8.24927 1.47421 -0.622919 0.517936
151 1 16.516 16.4666 9.88236 0.159046 0.544323 1.4464
152 1 1.51821 1.61024 11.4472 -1.16166 0.228833 -1.39989
153 1 3.17819 16.4528 9.88247 0.47763 -0.338462 0.214702
154 1 4.82998 1.70078 11.6079 0.0248606 -0.632576 -0.331242
155 1 6.52148 16.5174 10.0395 -1.54912 0.650817 0.874416
156 1 8.29409 1.63026 11.5877 -0.681213 -0.28666 -0.991059
157 1 9.93408 16.4647 9.88284 0.994247 -1.87748 -1.60086
158 1 11.5742 1.74327 11.6169 -0.685611 0.635842 -1.41303
159 1 13.1794 16.3786 9.89614 -0.547608 -1.71619 -1.46593
160 1 14.8094 1.63738 11.4205 -1.37445 0.762854 -0.869637
161 1 16.4742 3.21944 9.73099 0.185307 2.00317 1.93075
162 1 1.62125 5.00984 11.5561 0.477214 -0.0201212 0.142185
163 1 3.28145 3.26605 9.75184 -0.679287 -1.09419 2.22212
164 1 4.90354 4.8753 11.5437 -0.407167 -0.161812 -1.40411
165 1 6.56391 3.35357 9.83716 1.73443 -0.196083 -0.34922
166 1 8.29492 4.97749 11.575 -0.71148 0.0403123 -0.551361
167 1 10.0444 3.27212 9.96138 0.31919 0.346099 -1.6787
168 1 11.5541 4.9931 11.5733 0.062664 -1.88546 -0.198081
169 1 13.3101 3.2631 9.76231 0.464565 0.311349 -2.12788
170 1 15.0129 4.97415 11.5839 -3.32882 -0.499162 -0.151079
171 1 0.0891485 6.6849 9.93932 -1.33593 -0.517212 0.0781179
172 1 1.59105 8.22056 11.6242 0.502143 -0.20483 -0.352769
173 1 3.22676 6.48168 9.87324 0.964236 1.5589 -1.31385
174 1 4.80758 8.22544 11.7433 1.49691 0.702971 -0.095742
175 1 6.48272 6.65431 10.068 0.364955 1.136 0.0952737
176 1 8.11649 8.15062 11.5699 1.06163 -0.277678 -0.927158
177 1 9.91656 6.58652 9.86182 -0.11347 -0.737539 -0.236918
178 1 11.5731 8.19255 11.5803 -1.30237 0.734997 -0.710387
179 1 13.3675 6.58876 9.97755 -0.226269 -0.60772 -0.649365
180 1 14.8636 8.34625 11.694 -2.06664 -1.31931 -1.46821
181 1 16.4823 9.84669 9.93657 0.77259 0.609688 -0.693793
182 1 1.66851 11.4764 11.5223 -0.577208 0.0019831 -0.815894
183 1 3.27871 9.91219 9.99844 0.104659 1.83401 -1.21912
184 1 4.96775 11.506 11.5993 0.226353 -0.423808 -1.0439
185 1 6.50898 9.88374 9.98651 1.04392 -0.718397 0.747397
186 1 8.17836 11.4834 11.565 2.54169 0.372107 -0.991198
187 1 9.83434 9.94742 9.94003 1.10934 -1.72917 -0.340651
188 1 11.4174 11.4369 11.5407 -0.682984 -0.316163 -0.552351
189 1 13.2515 9.8903 9.82917 1.37881 0.805632 1.86913
190 1 14.9085 11.4798 11.5225 3.42588 0.548555 -0.268225
191 1 0.0394548 13.1248 9.8412 -0.477028 1.44542 -0.451836
192 1 1.59999 14.8377 11.4349 1.30414 0.221957 0.284483
193 1 3.32862 13.1695 9.88453 1.08262 -1.30899 0.235955
194 1 4.97757 14.8779 11.6016 0.856694 -0.947438 -0.95368
195 1 6.60423 13.2264 9.848 -0.932262 -0.472916 0.118196
196 1 8.16346 14.8528 11.5676 0.615242 -1.07725 0.330639
197 1 9.89784 13.1601 9.83508 1.2533 1.71239 -0.510077
198 1 11.4417 14.8584 11.5522 2.44325 0.322979 -0.170216
199 1 13.1582 13.0973 9.85233 0.0986018 1.83298 0.680927
200 1 14.8343 14.7318 11.4706 0.298135 1.84193 -0.486922
201 1 16.5004 16.3586 13.0146 -1.09528 0.390599 1.85954
202 1 1.70171 1.63941 14.7094 0.180624 -1.54496 0.408602
203 1 3.19945 0.0098634 13.1011 3.46609 0.732634 -1.11933
204 1 4.79672 1.57911 14.9096 0.519936 0.387363 0.620704
205 1 6.62891 0.0141227 13.092 -0.458893 -0.0936529 -0.055236
206 1 8.15649 1.72243 14.8314 -0.124715 0.363673 -1.03939
207 1 9.85196 0.0129827 13.2003 -0.46243 0.479018 0.586047
208 1 11.5607 1.62325 14.791 -1.73305 -0.844342 -1.6503
209 1 13.1821 16.4294 13.0563 -0.294185 -0.700933 0.403893
210 1 14.7613 1.61952 14.7423 0.729718 -0.647765 0.250567
211 1 0.0670068 3.26953 13.1741 -0.0775383 1.34445 0.819308
212 1 1.70983 4.9499 14.9241 0.976701 -0.933791 -0.759248
213 1 3.21364 3.38577 13.1903 -0.850745 -0.840378 -1.36415
214 1 4.86169 4.92995 14.9624 0.57687 0.0464167 -0.68376
215 1 6.52136 3.35793 13.2366 2.36763 -0.191595 -1.23724
216 1 8.19205 4.97311 14.7895 0.0538196 -0.435033 -0.830665
217 1 9.96863 3.39172 13.2833 0.0818396 -0.0552115 -0.455035
218 1 11.6669 5.01189 14.8407 -1.46989 0.505311 -0.550697
219 1 13.2756 3.24803 13.1684 -1.35408 0.466794 -0.625707
220 1 14.9514 5.00499 14.8081 -1.51407 0.719735 -1.03977
221 1 0.0720705 6.62046 13.229 0.0833998 -0.0851967 -2.78699
222 1 1.65657 8.24534 14.9601 -0.652659 0.644139 -0.450869
223 1 3.31686 6.59656 13.1884 -0.223795 0.847999 0.183225
224 1 4.86821 8.32495 14.9431 0.0710025 0.100107 -0.216533
225 1 6.55752 6.51607 13.2978 -0.134674 0.545371 0.0679546
226 1 8.15019 8.25131 14.912 0.142339 -0.718323 0.894167
227 1 9.93648 6.58526 13.2605 -0.680167 1.72912 1.10497
228 1 11.5129 8.27361 14.8521 0.280787 -0.468197 0.251767
229 1 13.2462 6.63797 13.2291 -1.77368 -0.931436 1.15738
230 1 14.8523 8.37935 14.9155 0.473985 -0.4778 -0.468706
231 1 16.4307 9.90267 13.2366 0.368137 -1.28687 -1.59818
232 1 1.72215 11.6134 14.9665 -0.696072 -0.733675 -2.44973
233 1 3.27521 9.88243 13.3438 -0.0927538 2.38994 -1.4386
234 1 5.08336 11.5672 14.9265 -1.60153 0.691267 0.638574
235 1 6.56678 9.93989 13.3015 3.24333 0.351206 0.213273
236 1 8.28169 11.5662 14.919 -1.09295 2.1725 0.758288
237 1 9.7488 9.85137 13.2572 -3.08644 0.978518 1.06652
238 1 11.5194 11.6014 14.8264 0.286702 -0.832047 -0.23852
239 1 13.2504 9.957 13.2209 2.47816 -0.345837 -0.0933162
240 1 14.8281 11.533 15.0217 1.57294 0.243071 -1.48486
241 1 16.5106 13.1861 13.2056 0.34439 0.561221 0.119574
242 1 1.64883 14.8471 14.792 0.644607 -0.380566 -1.21535
243 1 3.28123 13.196 13.1662 0.345198 -0.199194 -1.1955
244 1 4.97477 14.8307 14.875 -0.948329 -1.88451 -0.0416646
245 1 6.57401 13.199 13.2861 1.49615 -0.352284 0.585335
246 1 8.27237 14.7797 14.8975 0.238029 1.18364 -1.32733
247 1 9.88422 13.1667 13.1555 -2.09442 2.29315 -1.0133
248 1 11.4599 14.8171 14.6646 2.22027 0.351855 2.02493
249 1 13.1362 13.1257 13.0909 -0.897716 2.08492 -1.26677
250 1 14.8007 14.8987 14.7486 -1.15184 1.03257 2.33558
