ITEM: TIMESTEP
90
ITEM: NUMBER OF ATOMS
250
ITEM: BOX BOUNDS pp pp pp
0.0000000000000000e+00 1.6520000000000000e+01
0.0000000000000000e+00 1.6520000000000000e+01
0.0000000000000000e+00 1.6520000000000000e+01
ITEM: ATOMS id type x y z vx vy vz
1 1 16.5102 16.372 16.414 -2.99087 0.372572 -0.857094
2 1 1.63546 1.65261 1.63354 -0.597461 -0.40294 -1.44133
3 1 3.31583 16.4822 16.3993 1.69158 0.244708 -0.755601
4 1 4.82393 1.71459 1.69718 1.00872 -0.497027 0.387499
5 1 6.62075 16.4736 16.4689 1.36653 1.66432 -0.652408
6 1 8.27286 1.726 1.6976 0.449304 -0.99145 0.850514
7 1 9.96737 16.4419 0.00980989 0.554042 -0.00962783 -1.9574
8 1 11.5527 1.62525 1.51754 0.567511 1.11889 -2.46608
9 1 13.2245 16.4221 16.4586 -1.64819 0.544114 -0.438536
10 1 14.8039 1.57974 1.59624 -0.946946 -0.915818 -1.59943
11 1 0.0661469 3.25012 0.0514219 -0.312996 0.418016 -1.07952
12 1 1.60113 4.96168 1.73177 0.832748 -0.182013 1.13765
13 1 3.17767 3.26262 16.4945 -1.00841 -0.999318 -0.430375
14 1 4.86213 4.89801 1.78257 1.23732 -0.0907349 2.07555
15 1 6.51309 3.25672 0.0633946 0.209267 0.321644 1.01462
16 1 8.21189 4.90335 1.57437 1.11086 -0.0924707 1.57392
17 1 9.8557 3.38939 16.4998 0.517085 1.23009 -1.85892
18 1 11.5701 4.94378 1.60999 2.21895 -1.0686 0.546498
19 1 13.2964 3.25239 16.3988 -0.0404683 -0.118314 -1.27653
20 1 14.6805 4.88481 1.65411 0.221721 0.484661 0.441816
21 1 16.417 6.72589 0.0944079 -0.330316 1.02213 0.463299
22 1 1.60874 8.38404 1.75478 0.268807 0.511302 1.79312
23 1 3.27363 6.74878 0.0183641 -1.57227 -0.688695 -0.369514
24 1 5.02898 8.30229 1.67867 1.2215 -1.24528 -0.299358
25 1 6.63078 6.65313 0.034421 1.5403 -0.330145 0.659876
26 1 8.36428 8.20519 1.62543 3.15934 1.09713 -1.70678
27 1 9.93389 6.62158 16.4281 0.107369 -2.25453 1.21613
28 1 11.5907 8.21818 1.69709 -1.03634 -1.16282 0.395389
29 1 13.2599 6.59791 0.0676197 -1.53307 0.508267 1.0075
30 1 14.8088 8.34316 1.67295 -0.018754 2.33766 2.06526
31 1 0.0104418 10.0466 0.107783 -0.970241 0.0580493 1.77668
32 1 1.68281 11.707 1.69936 0.900086 0.970621 1.34619
33 1 3.4309 10.0551 0.103908 -0.981878 -1.05574 0.771688
34 1 5.02005 11.6279 1.66615 1.15213 0.377639 1.64438
35 1 6.67842 9.83345 16.4581 0.170981 -0.73302 0.307618
36 1 8.44565 11.4784 1.68121 0.720771 0.143831 -0.546841
37 1 9.93207 9.74253 16.4695 -1.34455 2.3229 -0.496975
38 1 11.6203 11.6049 1.7255 1.38558 0.693392 0.288866
39 1 13.2031 9.92043 16.5148 -1.98149 -1.00946 0.819665
40 1 14.9284 11.6291 1.62692 2.14454 0.544899 -1.06498
41 1 0.0804114 13.1802 16.4372 0.0999515 -1.41693 -0.668411
42 1 1.65576 14.732 1.64049 1.67838 1.05764 -2.04259
43 1 3.42094 13.2715 16.4394 -0.27493 0.345909 0.934389
44 1 5.03274 14.8072 1.66898 1.13847 -0.456035 -0.810129
45 1 6.62545 13.2699 16.4888 1.29883 0.552773 -0.910111
46 1 8.27594 14.9732 1.71391 -0.023997 0.635375 0.0421871
47 1 9.91288 13.1629 16.4621 -1.63353 0.517876 -1.24528
48 1 11.6538 14.9687 1.6496 -0.160694 1.10438 -0.617798
49 1 13.1592 13.2387 0.0265207 1.10571 -1.19844 -1.09381
50 1 14.9437 14.8497 1.64858 -2.17941 1.40431 -0.627249
51 1 16.5029 0.00588372 3.19654 -1.20791 -1.37592 -1.96856
52 1 1.69895 1.68707 4.97012 -3.00375 -1.83693 -0.218815
53 1 3.33822 0.0910893 3.2697 0.387712 -0.393752 -1.12355
54 1 5.00625 1.6299 4.96478 1.32375 0.558346 -0.328614
55 1 6.62194 0.0599672 3.34637 0.466483 -0.0738986 -2.53775
56 1 8.24646 1.62656 5.04152 0.568124 -0.910982 0.601816
57 1 9.97923 0.195683 3.40736 -0.493582 0.823286 -1.38053
58 1 11.5856 1.6746 4.96039 0.551288 1.09883 0.508038
59 1 13.2022 16.479 3.2421 1.17112 0.988466 1.30131
60 1 14.797 1.6874 4.88269 1.17905 0.0704213 -0.0146369
61 1 16.4641 3.2955 3.33935 0.133871 -1.06079 -1.90315
62 1 1.58416 4.938 4.99385 1.14754 0.0385756 -0.778024
63 1 3.21046 3.27517 3.31961 -1.9837 0.047295 0.147793
64 1 4.89797 4.91613 4.9918 0.125745 -1.15341 0.401816
65 1 6.54675 3.2914 3.3718 1.99959 0.728887 0.608979
66 1 8.2548 4.86716 5.11279 1.67075 1.32105 -0.144696
67 1 9.86264 3.33983 3.33723 -0.541229 -1.32554 -0.948011
68 1 11.4673 4.88658 5.09143 0.435047 -1.24181 -0.174688
69 1 13.1537 3.20843 3.28926 0.353212 -0.203136 0.756987
70 1 14.7177 4.96415 4.94827 1.79483 -0.184267 -0.935581
71 1 16.3612 6.6962 3.24552 -1.48863 0.456334 0.290138
72 1 1.70438 8.26799 4.92365 -1.94636 0.408314 -0.178259
73 1 3.23909 6.65558 3.31224 0.636646 -0.0843889 -0.0116881
74 1 5.03649 8.19825 4.86339 0.602277 0.633162 0.10809
75 1 6.68965 6.52224 3.25211 1.16943 -0.604724 0.183849
76 1 8.23181 8.27424 4.96133 -0.594291 -0.290766 0.653922
77 1 9.77133 6.51121 3.33013 -0.428285 -1.89703 1.54772
78 1 11.4906 8.20482 5.07368 -0.454248 0.81698 1.22171
79 1 13.0572 6.54497 3.3526 0.184473 -0.439264 0.955038
80 1 14.8257 8.33707 5.00479 -2.18055 -0.192921 0.787699
81 1 16.4715 9.93027 3.33017 -0.428225 -0.00300275 0.762993
82 1 1.72884 11.5594 4.97263 1.31937 1.48873 -1.27664
83 1 3.34861 9.91667 3.37798 1.56606 1.29478 -0.106496
84 1 5.07853 11.5347 4.94887 -0.592203 0.834859 0.238567
85 1 6.74053 9.90365 3.30273 1.69177 -0.787234 0.27448
86 1 8.41211 11.5878 5.00497 1.09582 1.45984 0.801681
87 1 9.89266 9.84642 3.428 -1.14457 -1.46991 0.110816
88 1 11.6554 11.6144 4.97751 -0.0125349 0.762642 0.573373
89 1 13.1978 9.93516 3.39858 -1.97235 1.02508 -0.509439
90 1 14.8911 11.5493 4.94962 1.23123 1.5946 -0.357745
91 1 0.0937206 13.1323 3.30763 1.19208 0.149538 -1.02148
92 1 1.80044 14.7766 4.8715 2.74099 -0.0890665 -3.0601
93 1 3.43989 13.1391 3.31637 2.89358 0.28025 0.559491
94 1 5.01044 14.8358 4.91735 1.04031 1.00334 -1.09541
95 1 6.71658 13.278 3.34108 2.54276 -1.06002 -1.12334
96 1 8.35387 14.9398 4.97086 1.32418 -0.177092 1.30705
97 1 9.94009 13.2764 3.33612 0.975557 2.40082 -0.785482
98 1 11.5506 14.8927 5.05934 -1.57025 1.63718 0.774468
99 1 13.2001 13.3008 3.27934 -1.08577 1.14224 -1.02595
100 1 14.97 14.837 4.87625 -0.634694 -1.80592 0.562343
101 1 16.5001 16.4631 6.57591 -0.65303 -0.99644 0.352041
102 1 1.69278 1.64659 8.07919 -0.858505 0.0210366 -0.261976
103 1 3.30381 16.4564 6.47252 -0.279553 2.69778 -0.54287
104 1 4.9466 1.53378 8.25516 -1.30489 1.39983 0.584914
105 1 6.62331 16.5042 6.6547 -0.0491151 2.10115 0.349358
106 1 8.29835 1.56022 8.35535 -1.00715 0.502364 0.982921
107 1 9.96463 0.0329698 6.74063 0.53018 1.4635 -0.00493654
108 1 11.592 1.62537 8.40169 -0.645867 0.646868 0.976984
109 1 13.2106 0.0367845 6.63522 -1.63536 -0.0118272 -0.565677
110 1 14.8897 1.57044 8.342 0.570628 1.88156 0.241159
111 1 16.4948 3.18971 6.56612 -1.39929 0.183254 -1.48672
112 1 1.62996 4.96451 8.13712 0.603105 -1.42537 -0.471235
113 1 3.3104 3.26776 6.55267 -0.871697 -0.167144 -1.31483
114 1 5.01055 5.02777 8.21713 -3.0866 -2.95699 1.6529
115 1 6.55975 3.29432 6.68783 1.36944 -0.9254 -1.14189
116 1 8.24468 5.07943 8.29229 1.82067 -0.861844 2.2377
117 1 9.87903 3.30588 6.73876 0.896224 -0.230304 -1.09349
118 1 11.5693 5.07015 8.34649 0.998994 -1.81311 0.880267
119 1 13.2259 3.27576 6.63238 1.05311 -0.275069 1.07033
120 1 14.837 5.01404 8.13961 -0.407917 0.704943 -1.14556
121 1 16.4774 6.73216 6.50331 1.01363 0.782852 -2.13404
122 1 1.70109 8.26551 8.32541 -1.53207 0.499603 -2.52513
123 1 3.32721 6.61011 6.63961 -0.133773 -2.03241 -1.17294
124 1 4.95161 8.28918 8.29893 -2.6385 0.856349 -1.45429
125 1 6.64326 6.5167 6.58025 -1.57073 -2.8696 0.722683
126 1 8.1915 8.34459 8.25069 -1.6289 -1.9377 -0.249727
127 1 9.768 6.56632 6.6677 1.13748 -1.32263 0.137399
128 1 11.5309 8.39017 8.28688 -0.636304 -0.183852 1.84368
129 1 13.1376 6.71182 6.68207 -2.72729 -0.245972 -0.640082
130 1 14.8589 8.27191 8.25119 1.32667 -0.270476 -1.58221
131 1 0.0827962 9.83948 6.59905 0.824134 2.00139 -1.89133
132 1 1.66702 11.4667 8.28305 0.0647205 0.247969 0.185477
133 1 3.30065 9.90242 6.49604 -1.41121 -2.11222 -0.019584
134 1 4.76639 11.5424 8.35849 0.89333 0.0241959 -0.799566
135 1 6.62491 9.92666 6.6015 -1.13191 0.880247 0.249552
136 1 8.14933 11.5655 8.18917 2.30905 -2.54726 0.159241
137 1 9.82446 9.955 6.58764 0.420928 -1.49359 -0.514201
138 1 11.588 11.641 8.06977 1.3566 0.798839 1.72258
139 1 13.2578 9.95082 6.68099 -1.53001 0.587328 0.889527
140 1 14.8764 11.6207 8.24969 -1.08978 1.80774 0.968276
141 1 0.143959 13.1971 6.68021 1.32077 -1.33882 -1.38784
142 1 1.57284 14.8777 8.27942 0.281059 -1.51113 -1.52815
143 1 3.33577 13.1868 6.64146 1.15184 0.651728 -0.458675
144 1 4.89084 14.8411 8.26484 0.229471 0.368354 -0.720126
145 1 6.61649 13.2906 6.57736 -0.674068 1.71346 0.683607
146 1 8.17364 14.8599 8.3206 -1.35459 0.173099 0.669276
147 1 9.85624 13.3123 6.67826 -0.119997 1.27999 0.267524
148 1 11.6994 14.8989 8.34641 0.294312 -0.285105 1.1502
149 1 13.3665 13.2217 6.56572 -0.512075 -0.255879 -1.17389
150 1 14.8024 14.9005 8.27702 -0.243209 -1.36925 -0.293643
151 1 16.4976 0.00240146 9.90256 1.30728 -0.219165 -2.73633
152 1 1.66746 1.68871 11.4697 1.0047 -0.993791 0.261258
153 1 3.32933 16.4768 9.88665 -2.51238 0.134535 -1.14905
154 1 4.96629 1.61314 11.5557 -3.03659 -0.460584 0.103574
155 1 6.64385 16.4572 9.98111 -0.811528 1.83633 1.34323
156 1 8.23642 1.69524 11.613 -1.89736 0.472031 0.0443756
157 1 9.85702 16.4282 10.0792 -0.732046 -0.810534 0.4533
158 1 11.5267 1.69093 11.5459 0.612298 -0.983847 -0.0835073
159 1 13.1141 16.4824 9.95717 1.19915 -1.05594 -0.143925
160 1 14.9666 1.62739 11.6004 0.298323 0.579498 -1.14503
161 1 0.0787 3.28871 9.81888 -0.0237819 1.554 0.980899
162 1 1.71077 4.90659 11.5193 -1.62265 0.568943 0.691827
163 1 3.4204 3.28928 9.78165 0.447116 0.9417 2.31318
164 1 4.98218 4.93272 11.4377 -1.06392 -0.258339 1.69174
165 1 6.70671 3.35084 9.98023 0.235448 1.69776 0.239196
166 1 8.2918 4.89013 11.5522 -0.514874 0.960193 0.63235
167 1 9.91458 3.31217 9.90074 0.883685 -1.22959 1.84001
168 1 11.628 5.01536 11.4763 1.21717 2.54645 -0.614669
169 1 13.2551 3.28067 9.92198 0.713128 0.712504 1.04194
170 1 14.9808 5.04523 11.4365 -1.0174 0.273852 1.38735
171 1 16.5001 6.638 9.95135 3.7731 -1.53927 -2.49464
172 1 1.63877 8.27966 11.7332 -0.853104 -1.25886 -1.78362
173 1 3.38531 6.52416 9.9323 -1.44427 1.04646 0.819606
174 1 4.88848 8.24023 11.5761 -0.254389 -0.74058 0.219713
175 1 6.5637 6.5167 9.94913 1.57639 -2.30523 -1.25101
176 1 8.25709 8.24945 11.5077 -1.53563 0.37475 1.5775
177 1 9.89543 6.69938 9.96676 -0.405403 0.0465463 1.64843
178 1 11.6616 8.27311 11.4725 -0.563643 0.316883 -0.10637
179 1 13.2092 6.70735 9.89792 2.65735 0.672848 0.801123
180 1 14.9604 8.28831 11.6354 -0.594476 0.160442 1.13374
181 1 0.0611332 9.84648 9.95545 -1.27993 -0.097441 -0.850779
182 1 1.59278 11.5223 11.5008 1.66685 -0.996027 1.92733
183 1 3.24214 9.81013 9.96169 -0.291241 -0.0416938 0.885654
184 1 4.83815 11.5389 11.5134 -0.640924 -0.00704059 0.963808
185 1 6.61477 9.99937 9.92415 -0.992419 -0.535416 -1.85471
186 1 8.11116 11.5355 11.4842 -0.685481 -1.59517 -0.764106
187 1 9.81828 10.0013 9.74931 -2.08901 -0.450593 0.586653
188 1 11.5027 11.5909 11.3956 0.474373 -0.961788 -0.104224
189 1 13.2699 10.0318 9.84556 1.71428 -0.0687742 -1.88483
190 1 14.7619 11.5533 11.5726 -0.751732 0.0828805 -0.683513
191 1 0.0198755 13.1759 9.96794 1.09373 -0.898275 -0.215619
192 1 1.6954 14.8302 11.5193 -0.814378 -2.26014 -3.1928
193 1 3.18305 13.2593 9.83164 0.452703 -2.17036 -0.0346675
194 1 4.89357 14.8649 11.5047 -0.723939 -0.758054 -0.777579
195 1 6.51062 13.1938 9.99566 1.01294 -0.569964 1.72474
196 1 8.14197 14.8613 11.6254 -0.0751503 0.062646 -0.777233
197 1 9.79642 13.1808 9.82877 -0.792501 1.33496 0.126474
198 1 11.53 14.7623 11.6158 0.623183 -0.307284 0.747295
199 1 13.1704 13.177 9.86348 -0.0286373 0.596118 0.14018
200 1 14.8567 14.8472 11.5134 2.24777 0.9372 -0.137813
201 1 0.0344651 16.4967 13.1316 0.853497 -1.94435 0.412969
202 1 1.69577 1.58349 14.8772 -0.829434 -0.885221 0.371017
203 1 3.33587 0.0270318 13.1159 -1.09981 -1.97783 -1.20905
204 1 4.94855 1.67913 14.8481 -0.851967 1.17507 1.6504
205 1 6.5436 0.0525674 13.344 -0.976727 1.70531 0.305708
206 1 8.25607 1.68025 14.9298 -2.06212 1.81087 0.51089
207 1 9.97764 0.0493374 13.1971 -0.19526 -1.10613 -0.18311
208 1 11.653 1.52658 14.8135 -0.15521 0.608168 -1.21432
209 1 13.1973 16.3607 13.2298 -1.00462 -0.672975 -0.0731767
210 1 14.9692 1.68717 14.772 1.12227 0.256765 0.214232
211 1 0.152172 3.24518 13.2299 0.30082 0.470792 -0.813653
212 1 1.59949 4.95185 14.9409 -1.69878 1.11596 1.45076
213 1 3.30689 3.37457 13.1846 -0.641825 -0.0227551 1.70344
214 1 4.93511 4.96328 14.8707 -0.458176 0.514967 0.0985315
215 1 6.60193 3.38126 13.2325 -2.83681 0.66385 -0.955366
216 1 8.27216 5.07648 14.8716 1.50338 -1.45351 -1.37897
217 1 10.0111 3.40483 13.2071 1.51846 0.606566 -0.75153
218 1 11.6171 5.00223 14.8492 0.612368 1.81174 -2.99461
219 1 13.344 3.3689 13.1993 2.266 -1.90707 0.285827
220 1 14.9765 5.04965 14.9514 0.122316 1.2136 1.06276
221 1 0.0392665 6.61373 13.311 0.986585 0.230419 -0.616683
222 1 1.62808 8.3781 15.043 -2.97464 1.12085 1.20665
223 1 3.2584 6.53602 13.2388 -0.496153 0.320839 1.36369
224 1 4.93481 8.26724 14.9139 0.114693 -0.706206 2.05298
225 1 6.55456 6.54697 13.2044 -1.23201 -0.00882907 0.0791501
226 1 8.28841 8.20218 14.7039 0.95425 -3.27718 -0.336794
227 1 9.96403 6.57962 13.1381 -0.704788 0.099588 -0.127784
228 1 11.5813 8.24833 14.8313 -0.901094 0.609071 1.8325
229 1 13.3579 6.60275 13.1458 2.03927 1.82108 1.70112
230 1 14.9278 8.34199 14.9816 0.547505 2.0201 -0.62311
231 1 16.5078 9.94765 13.3046 -0.26655 0.812843 -1.75197
232 1 1.6407 11.5846 14.9241 -0.121503 0.435723 2.38934
233 1 3.25221 9.9416 13.2528 0.612467 1.28516 3.21278
234 1 5.05949 11.5578 14.8467 0.876665 -1.48145 4.36856
235 1 6.49879 9.79031 13.1091 -3.06762 -0.7973 1.35757
236 1 8.25002 11.5027 14.7925 0.0447811 -0.74314 0.579675
237 1 9.92325 9.85735 13.1438 -2.40948 -1.85699 -0.39002
238 1 11.3449 11.4798 14.8341 -1.82505 2.21669 0.600013
239 1 13.1194 9.95464 13.1429 -1.06103 -2.09463 0.384274
240 1 14.8052 11.5904 14.8178 -1.29359 -1.03199 0.256535
241 1 16.3792 13.1998 13.2302 0.468593 -0.338125 -0.0531072
242 1 1.72167 14.9208 14.8238 -0.865732 0.527692 1.6591
243 1 3.20242 13.204 13.2347 1.74266 -0.325947 2.66625
244 1 4.99688 14.8702 14.8418 0.409065 0.680379 -2.53309
245 1 6.58226 13.2325 13.1345 0.745288 0.549218 0.477287
246 1 8.24689 14.9414 14.8368 1.94039 0.725757 -0.4512
247 1 9.79326 13.1494 13.2066 0.0830359 -2.11502 -1.95927
248 1 11.5343 14.7555 14.8275 0.25208 -1.11072 -0.284629
249 1 13.0971 13.1577 13.2096 0.177215 0.809897 -0.564776
250 1 14.7993 14.7851 14.7974 0.998103 0.378814 -0.210053
