ITEM: TIMESTEP
640
ITEM: NUMBER OF ATOMS
250
ITEM: BOX BOUNDS pp pp pp
0.0000000000000000e+00 1.6520000000000000e+01
0.0000000000000000e+00 1.6520000000000000e+01
0.0000000000000000e+00 1.6520000000000000e+01
ITEM: ATOMS id type x y z vx vy vz
1 1 0.0539573 0.0582352 16.5001 0.584042 0.238805 -0.184494
2 1 1.65641 1.6539 1.61805 -1.53435 1.24037 0.621568
3 1 3.42063 16.4945 16.4412 1.75754 1.19455 -0.196902
4 1 4.92641 1.62967 1.75506 0.38508 0.556507 -0.250108
5 1 6.60737 16.4587 0.0947242 -0.558526 -1.73984 1.61488
6 1 8.28355 1.59802 1.70151 0.714165 0.398343 1.73274
7 1 9.91354 16.4766 0.165525 -0.306279 -0.495846 0.140922
8 1 11.4799 1.73251 1.53689 -0.969785 -1.1801 1.48831
9 1 13.1912 16.5188 0.107241 0.561 -0.569371 0.615732
10 1 14.8859 1.57731 1.65652 0.426064 -0.455923 1.84942
11 1 0.0488348 3.33451 0.0616609 0.676564 1.94638 0.633847
12 1 1.73129 4.92003 1.73915 0.596107 0.344549 0.13285
13 1 3.25851 3.25192 0.023672 -1.97755 -0.0378188 0.372081
14 1 4.8695 5.09694 1.62067 -0.854282 0.0335457 -1.08248
15 1 6.55949 3.28149 0.0374196 0.252353 -0.856484 0.296432
16 1 8.1841 4.96738 1.6139 -2.65097 -0.382717 0.00957174
17 1 9.7579 3.29033 0.00534845 0.477474 -0.607076 1.33885
18 1 11.5393 4.89146 1.64742 -0.368167 0.120668 0.688115
19 1 13.2948 3.30033 16.4169 -0.312182 1.74912 1.24976
20 1 14.8501 4.99772 1.64386 -2.14117 0.0910734 0.683668
21 1 0.0795115 6.63206 0.0642472 0.307054 -0.54834 0.459278
22 1 1.71012 8.33884 1.54572 0.5705 0.366608 0.614255
23 1 3.24749 6.66873 16.3753 -0.889651 0.637877 -1.03357
24 1 4.92045 8.20659 1.54789 -0.982486 0.154957 -0.643006
25 1 6.59799 6.6108 16.4471 1.84314 -0.309187 0.929776
26 1 8.21312 8.37068 1.60488 -1.02647 -0.461078 1.02991
27 1 9.87178 6.59846 0.0762119 -0.666998 0.190276 -1.29921
28 1 11.52 8.27041 1.57626 -1.92967 -1.87332 0.180479
29 1 13.1081 6.58237 16.4817 -1.49279 -1.42305 -0.268138
30 1 14.9643 8.26865 1.71386 -0.180212 -0.20947 0.253802
31 1 16.5043 9.97072 16.5051 0.576723 0.224731 0.381557
32 1 1.63566 11.5949 1.67397 -0.497811 -0.912153 -0.0509255
33 1 3.37723 9.92156 16.4172 0.403205 0.808243 -0.946214
34 1 4.85576 11.5361 1.65504 0.267586 -0.502809 -1.28153
35 1 6.64869 9.96253 16.4767 1.37959 -0.497247 -2.39121
36 1 8.30386 11.5281 1.62237 -0.947699 -0.467325 -1.19699
37 1 9.9236 10.0145 16.5009 1.81322 -0.835421 -1.65154
38 1 11.6608 11.5422 1.74818 -1.22099 -0.979245 0.322229
39 1 13.2501 9.9541 16.4293 0.690236 0.33425 -3.36249
40 1 14.9374 11.5443 1.65764 0.233853 1.82311 1.27773
41 1 0.00189777 13.2148 16.5174 -1.12713 -0.287862 2.40909
42 1 1.66817 14.8932 1.68043 0.185929 -2.56408 -1.22543
43 1 3.25841 13.2398 16.5053 1.23114 -0.299259 1.02555
44 1 4.83613 14.8205 1.61511 -1.1239 -0.95364 -1.03175
45 1 6.48644 13.13 16.4977 -0.298879 -2.26668 -0.447478
46 1 8.22877 14.7658 1.7478 -0.952378 0.196118 2.21506
47 1 9.97639 13.1934 0.119293 -0.862686 -0.733237 0.832081
48 1 11.5611 14.7924 1.82458 -0.660144 0.228867 0.779552
49 1 13.2135 13.1901 0.0208642 1.216 0.507314 0.791392
50 1 14.8363 14.7732 1.73131 -1.47596 -1.90529 0.858209
51 1 0.0122691 0.1282 3.41036 0.693067 -1.04212 0.618602
52 1 1.59114 1.6748 5.00066 -0.686094 0.664445 0.579682
53 1 3.24342 16.456 3.36204 0.965227 -1.74156 0.464292
54 1 5.03084 1.65902 4.95091 1.5626 -1.20286 -0.0556762
55 1 6.59695 16.4024 3.28267 -1.60586 -0.784571 1.47769
56 1 8.22401 1.59486 4.97435 0.589576 -1.5126 0.456654
57 1 9.97859 0.0120118 3.32824 0.0526231 -1.9991 1.00656
58 1 11.5201 1.58983 4.94788 -0.756232 -2.28471 1.35534
59 1 13.2756 0.0326478 3.42146 0.35741 -0.669129 0.992324
60 1 14.8723 1.68739 5.04556 1.01716 1.32945 0.935023
61 1 16.5144 3.25916 3.33909 1.22521 -2.10342 0.714705
62 1 1.68356 5.00694 5.03269 -0.182936 0.91232 1.15891
63 1 3.26265 3.26727 3.34706 -1.02412 -1.81151 0.145834
64 1 4.83699 4.97802 5.03971 -2.36685 0.117463 -0.544744
65 1 6.59406 3.31355 3.33844 1.42735 -0.908606 1.00837
66 1 8.16959 5.08395 4.93002 -1.45057 -1.02565 -1.26502
67 1 9.75669 3.31712 3.2568 -2.0061 -1.81076 -1.0971
68 1 11.5201 4.98735 4.94603 -1.09022 -0.253879 -0.70937
69 1 13.2443 3.27713 3.2806 0.0236456 -1.7542 -0.787825
70 1 14.8106 4.97164 5.01145 -0.869598 -0.716741 0.539209
71 1 16.5124 6.63761 3.37532 -0.744441 0.473188 2.43078
72 1 1.67057 8.19776 5.05501 0.368696 -0.66901 1.65798
73 1 3.26661 6.71373 3.27084 0.297933 1.87778 -1.29522
74 1 5.0051 8.30492 4.93461 1.37558 0.0601738 -0.465565
75 1 6.57727 6.73436 3.25031 -2.63113 1.58472 0.795077
76 1 8.21955 8.34592 4.95644 -0.0160781 1.3805 -0.550288
77 1 9.81164 6.72508 3.2446 0.0783127 2.79518 -0.587268
78 1 11.4869 8.23671 4.98176 0.790054 3.56225 -0.320272
79 1 13.1611 6.5231 3.33773 -1.09624 0.382794 -0.587682
80 1 14.8712 8.18937 4.98126 -0.412829 -2.62438 1.41378
81 1 0.0681079 9.84979 3.32468 1.20649 0.922895 0.0014997
82 1 1.65345 11.6091 5.0592 0.771135 0.660294 -0.239534
83 1 3.36809 9.77348 3.35573 0.11822 0.398797 -1.51022
84 1 4.9274 11.4671 5.01373 -0.124589 -0.344055 -0.791493
85 1 6.66596 10.0118 3.28857 0.514074 -1.12249 -0.101804
86 1 8.24375 11.5579 4.92875 -0.303196 0.714651 -0.0682977
87 1 9.94358 9.94144 3.21224 -1.50799 0.190755 1.23632
88 1 11.6547 11.5276 4.87246 -0.654052 -2.17474 -1.32776
89 1 13.2826 9.89434 3.3551 -0.797317 0.230062 2.07772
90 1 14.9287 11.544 5.04485 1.19875 -0.1079 0.88355
91 1 0.0247324 13.2254 3.33585 -1.20295 0.831958 2.26163
92 1 1.62602 14.8686 4.97684 1.2266 -1.81372 2.32428
93 1 3.32408 13.1779 3.42535 -1.16014 -1.90665 0.737366
94 1 4.89714 14.891 4.97273 -0.083044 -1.53087 0.526972
95 1 6.59433 13.0906 3.28799 -1.83071 -1.75705 -0.0865887
96 1 8.19884 14.7593 4.99068 -1.22876 -0.786148 2.6309
97 1 9.96504 13.2291 3.31707 1.34837 1.06532 -0.731074
98 1 11.5802 14.8524 4.87507 -0.591581 0.429351 -0.0604225
99 1 13.2775 13.2063 3.29416 -0.412891 1.10927 1.16168
100 1 14.9415 14.7993 5.0081 -1.83989 -0.560658 2.15562
101 1 0.0637022 0.058458 6.73539 -0.115914 0.779395 3.27228
102 1 1.63029 1.66126 8.28944 -0.783027 -0.42862 1.90919
103 1 3.24683 0.0247379 6.59667 0.809863 -0.486922 0.930964
104 1 5.02658 1.59588 8.20101 0.808446 1.35737 -0.74576
105 1 6.62188 16.4126 6.57752 0.330353 -3.48994 0.407993
106 1 8.37193 1.58079 8.18692 2.09019 1.61277 -0.706805
107 1 9.96271 16.4957 6.52971 -0.726034 -2.02116 2.53283
108 1 11.5052 1.60493 8.31773 0.676898 0.551154 1.28708
109 1 13.2178 16.4977 6.57397 1.06022 0.0449338 0.545574
110 1 14.9326 1.61951 8.25468 1.80202 -0.483184 -0.683372
111 1 16.4995 3.34579 6.62587 -1.19785 0.664249 2.00171
112 1 1.64855 4.90182 8.18455 2.01962 0.446366 -1.62495
113 1 3.27099 3.36578 6.65934 0.86795 1.4432 -0.867793
114 1 4.96737 4.97069 8.24614 -1.65985 0.271424 0.182625
115 1 6.64973 3.21957 6.57143 1.84296 0.774674 0.309237
116 1 8.26466 5.03838 8.26436 1.91966 0.982121 1.57601
117 1 9.91459 3.35726 6.59892 -0.885394 0.458184 1.40164
118 1 11.5051 4.97305 8.2156 -0.99937 -1.1704 1.80785
119 1 13.1775 3.33556 6.54892 -1.09088 -0.239706 0.299217
120 1 14.7584 4.90154 8.21406 -0.20459 -0.244682 -1.2084
121 1 16.5115 6.59584 6.73164 -1.17278 -1.07114 2.15777
122 1 1.72476 8.21089 8.29988 1.52655 0.996373 -0.0468345
123 1 3.3771 6.64963 6.65267 0.0368577 1.07146 -0.922758
124 1 4.89556 8.28815 8.30417 0.577863 0.474867 -0.333861
125 1 6.69458 6.63397 6.6785 0.214294 -0.659801 2.69489
126 1 8.22666 8.3503 8.23474 0.0810662 2.05792 -1.19035
127 1 9.84963 6.59772 6.59826 1.12808 -0.834359 -2.73717
128 1 11.578 8.28771 8.19088 0.0300798 1.81 -0.710541
129 1 13.2183 6.72005 6.6115 -0.864327 -1.07187 1.89483
130 1 14.9261 8.22483 8.31729 1.06356 -0.855474 -0.913461
131 1 0.0353777 9.88965 6.66492 1.39967 -0.108286 0.44183
132 1 1.51502 11.6293 8.44009 -0.0255329 2.47967 0.486683
133 1 3.24174 9.88194 6.74624 -0.692285 -0.849059 0.517775
134 1 4.93511 11.564 8.38749 -0.750323 0.402164 1.36626
135 1 6.57568 9.93485 6.62022 0.764656 0.858167 0.946163
136 1 8.33322 11.5389 8.11189 -0.83089 1.34527 -1.32625
137 1 9.9716 9.969 6.57751 -0.529376 2.66921 0.737137
138 1 11.6577 11.6955 8.20608 -1.88375 2.04876 1.42086
139 1 13.2823 9.82241 6.57411 0.0736121 -0.0353813 -0.474309
140 1 14.7722 11.5888 8.26912 -0.828359 0.487856 -1.20398
141 1 0.0517122 13.1376 6.6664 0.891803 1.0864 1.12181
142 1 1.63046 14.8258 8.1301 0.396465 1.04551 1.22013
143 1 3.25412 13.1906 6.65216 -2.72874 -0.941352 -1.18567
144 1 4.8699 14.7734 8.38839 0.158812 0.183137 1.31242
145 1 6.51922 13.183 6.58482 -0.549275 -1.12556 -1.01658
146 1 8.23029 14.8541 8.15775 -0.141158 -0.432285 -2.35047
147 1 9.91246 13.2247 6.49774 -0.454739 -0.733177 -1.38529
148 1 11.5981 14.7996 8.27521 0.125537 -0.554602 0.432469
149 1 13.3434 13.2485 6.55335 1.86308 -0.833159 -0.475612
150 1 14.9157 14.8254 8.21906 0.736244 0.800451 0.208144
151 1 16.4757 0.100671 9.87604 -0.282435 0.434465 -0.622482
152 1 1.65478 1.57382 11.4754 -0.65906 -1.22058 0.101211
153 1 3.31487 16.4998 9.80259 0.70963 0.316177 -2.18751
154 1 5.06146 1.60959 11.4424 1.78572 -1.37732 0.128269
155 1 6.73028 16.4531 9.90595 -0.385747 -1.11162 -0.0796496
156 1 8.30163 1.56066 11.5848 0.64231 0.76689 -0.427956
157 1 9.82122 16.451 9.98982 0.713176 -0.629557 -0.830704
158 1 11.5205 1.66627 11.5605 0.245849 0.285941 1.82926
159 1 13.261 0.0762612 9.86177 1.37928 0.523217 -0.705607
160 1 14.794 1.69838 11.5352 -0.14344 -0.527365 -1.3141
161 1 16.4385 3.38264 10.0166 0.671326 0.535434 2.6341
162 1 1.64502 5.01371 11.5962 0.592749 1.04349 -0.484597
163 1 3.47206 3.32657 9.86681 0.301336 0.970832 0.0504215
164 1 5.05054 4.91702 11.5334 2.9226 1.82714 -0.687883
165 1 6.73591 3.30864 9.81892 -1.02503 1.06864 -1.35661
166 1 8.30909 4.91627 11.5362 0.641997 -0.217445 0.725513
167 1 9.84314 3.12484 9.89051 0.506427 -1.24947 1.04576
168 1 11.5173 4.95671 11.4316 -0.183111 -1.39713 1.06567
169 1 13.1095 3.34951 9.80095 -0.284572 0.484121 0.767801
170 1 14.7675 4.91296 11.5677 -0.0647293 2.52735 0.450004
171 1 0.12322 6.55891 9.91176 1.24188 0.347906 0.0683103
172 1 1.62897 8.14829 11.5434 1.48331 -0.801526 -1.76061
173 1 3.39962 6.58276 9.94569 -0.713514 0.450171 -1.99613
174 1 5.02141 8.43504 11.5714 0.493956 0.379979 -1.8981
175 1 6.61844 6.6541 9.96746 -1.38407 0.736931 -2.90673
176 1 8.30217 8.27241 11.5107 0.970767 2.92673 -2.62762
177 1 9.90993 6.67338 9.85337 -1.29751 -1.12483 -2.12622
178 1 11.5983 8.22336 11.5634 2.44915 -0.363689 -1.98835
179 1 13.2169 6.65063 9.94607 -0.608481 1.38569 -1.37837
180 1 14.881 8.17758 11.6407 1.1629 1.28988 0.249063
181 1 16.4682 9.83826 10.024 -1.94793 0.372395 1.1047
182 1 1.58784 11.5083 11.6399 0.517907 -0.614123 0.780789
183 1 3.34441 9.91987 10.0509 0.0464688 -1.51952 0.368751
184 1 4.92354 11.6127 11.4724 -0.96583 0.0950317 -2.11384
185 1 6.64068 9.97604 9.82736 0.775059 0.424807 -1.7928
186 1 8.18163 11.5622 11.5044 -1.06799 1.09248 -0.852419
187 1 9.93167 10.016 9.86475 0.0340169 2.44448 0.0719875
188 1 11.5922 11.6276 11.5063 1.14407 -0.153288 -0.951066
189 1 13.2954 9.93948 9.96888 1.90116 -0.7586 -1.07232
190 1 14.8289 11.5926 11.5306 0.187043 -0.992747 -0.629702
191 1 16.4824 13.2903 10.0676 -0.395249 1.50609 1.00699
192 1 1.62444 14.9325 11.4563 0.407698 3.24879 0.421756
193 1 3.11414 13.1406 10.0267 -1.01602 -0.314413 -0.184569
194 1 5.01694 14.9584 11.5292 0.995093 3.19493 -0.44701
195 1 6.71808 13.3084 9.94159 -0.940364 0.800225 0.015858
196 1 8.31937 14.938 11.6363 -0.776326 0.477648 0.362549
197 1 9.73399 13.2052 9.79146 -1.05429 -0.183805 1.87562
198 1 11.6149 14.8984 11.5193 0.392629 -0.611266 0.0122151
199 1 13.1473 13.1711 9.89088 -1.94096 -1.33417 0.950684
200 1 14.7087 14.9585 11.5946 -0.385758 -1.17 0.487209
201 1 0.0962514 16.5051 13.1709 0.487681 -0.296539 -0.930144
202 1 1.66118 1.70136 14.7319 -0.116043 1.80112 -2.69163
203 1 3.42343 0.0410859 13.1587 -0.051538 0.861075 -1.64745
204 1 5.04561 1.71728 14.9488 0.387719 0.0991337 -0.177726
205 1 6.7045 0.0542205 13.2498 2.61064 -0.175182 0.177506
206 1 8.21036 1.68216 14.9052 -0.600118 -0.288187 0.0289892
207 1 9.99087 0.0531478 13.3341 0.354697 1.25636 2.68637
208 1 11.5533 1.60464 14.9941 2.05423 -0.965506 -0.563084
209 1 13.1538 0.144219 13.2691 -1.07017 0.609365 1.06467
210 1 14.9495 1.65107 14.8386 2.09443 -2.17028 -0.278173
211 1 0.0404033 3.29933 13.1604 0.203179 -0.875623 -1.06697
212 1 1.73902 4.95112 14.8127 1.5632 -0.332861 -2.20404
213 1 3.37297 3.26859 13.1996 -0.102282 -0.102203 0.65685
214 1 4.90965 4.94552 14.8385 -0.874415 1.40787 -0.495484
215 1 6.616 3.31323 13.2491 1.23905 -1.27771 -1.08997
216 1 8.28906 4.87389 14.8579 0.480296 -0.561304 -1.82461
217 1 9.87341 3.33237 13.1728 0.987605 -0.199217 -0.971007
218 1 11.5992 4.83298 14.8429 -0.87508 -0.816433 -1.77376
219 1 13.1667 3.19157 13.1721 -0.296991 0.453521 -1.7161
220 1 14.9237 4.97751 14.8994 0.215937 -0.374794 0.0259776
221 1 0.0914341 6.54335 13.1946 0.830275 1.50796 -0.849189
222 1 1.57502 8.20748 14.778 -0.0834519 0.282364 -0.279263
223 1 3.4758 6.65556 13.0929 0.612222 0.443839 -0.366917
224 1 5.0101 8.26103 14.7995 1.01464 1.35115 -0.477248
225 1 6.63123 6.58315 13.157 -1.45372 1.28321 -0.502428
226 1 8.2672 8.25922 14.817 0.352398 0.465779 0.374987
227 1 9.96068 6.60448 13.2438 -0.394345 -1.02621 0.502071
228 1 11.5487 8.34301 14.9037 -0.840071 -0.920695 -0.288412
229 1 13.2063 6.53142 13.2927 0.331266 -0.192958 -0.744401
230 1 14.8886 8.22189 14.7368 1.24768 0.768538 -0.635249
231 1 0.0311259 9.8688 13.1449 -0.586346 -0.284593 -0.23718
232 1 1.61627 11.6228 14.8331 0.223917 -0.025306 -1.4112
233 1 3.28012 9.97462 13.2789 1.46077 -0.873964 -1.46466
234 1 4.96661 11.5106 14.8313 -0.0580316 -0.422048 -0.888861
235 1 6.55462 10.0252 13.149 1.27435 -0.090956 -2.11425
236 1 8.35317 11.6573 14.8756 1.10322 1.05779 -0.871146
237 1 9.90076 9.89584 13.1562 1.07633 2.40052 -2.14544
238 1 11.4758 11.5319 14.8389 -1.24852 1.23549 -1.98092
239 1 13.2034 9.95304 13.1624 0.562078 -0.908726 -0.392182
240 1 14.8475 11.5641 14.8117 -2.09792 -0.139565 -1.19601
241 1 16.4558 13.3089 13.1302 -1.92358 -0.10132 0.227182
242 1 1.60643 14.8944 14.8315 -0.605333 -0.345152 0.00653383
243 1 3.18391 13.2501 13.193 0.667525 1.983 -0.933812
244 1 4.93324 14.7783 14.8025 1.57973 -0.632442 0.821612
245 1 6.56734 13.2004 13.216 -0.742339 -0.908858 1.49722
246 1 8.22098 14.8983 14.9664 -0.881613 -0.679503 1.00239
247 1 9.95469 13.1945 13.2193 -0.00457139 -1.09908 0.0448219
248 1 11.5013 14.7582 14.9254 -0.623792 -0.127273 1.74285
249 1 13.1387 13.1643 13.2882 -1.93198 -0.200057 -1.84704
250 1 14.8557 14.8461 14.8382 0.801035 -0.378774 -0.119139
