ITEM: TIMESTEP
740
ITEM: NUMBER OF ATOMS
250
ITEM: BOX BOUNDS pp pp pp
0.0000000000000000e+00 1.6520000000000000e+01
0.0000000000000000e+00 1.6520000000000000e+01
0.0000000000000000e+00 1.6520000000000000e+01
ITEM: ATOMS id type x y z vx vy vz
1 1 0.0474451 16.3895 16.3904 -0.567695 -0.929835 -1.258
2 1 1.64107 1.64051 1.70263 0.532584 2.40228 -0.156148
3 1 3.34397 16.4955 0.013241 -0.0738273 -0.673969 0.756487
4 1 5.02927 1.65749 1.59109 -2.07439 -0.237636 -0.935908
5 1 6.63318 0.0394026 16.3921 -0.152526 1.26806 -0.248106
6 1 8.32728 1.7863 1.55832 -1.2669 0.800966 2.44138
7 1 9.90248 0.0938237 16.3763 0.933458 0.684286 1.1806
8 1 11.5821 1.6135 1.53306 -0.531573 -0.0244866 -1.32072
9 1 13.2257 0.0453761 16.273 0.995842 1.25545 -0.00105936
10 1 14.9409 1.68522 1.50011 2.60475 -0.0995617 2.17763
11 1 0.0529534 3.23034 16.4582 1.60155 -1.45859 -0.362596
12 1 1.58847 4.96448 1.65495 0.0549905 -0.865207 -0.234587
13 1 3.23593 3.29622 16.4782 -1.21604 -0.248106 -2.24013
14 1 4.86917 4.90335 1.73702 0.361254 0.274751 1.4466
15 1 6.62846 3.34456 16.4504 -1.10122 0.418614 1.17136
16 1 8.32604 4.9766 1.74185 -0.891762 -1.4479 -0.307605
17 1 9.94042 3.37853 16.4905 -1.0408 0.644907 1.20704
18 1 11.5851 5.1258 1.52841 1.24233 1.45791 0.363297
19 1 13.2709 3.27825 16.4886 -0.612305 1.76173 2.63
20 1 14.8193 4.99015 1.66661 -0.49283 -0.601913 -0.925768
21 1 16.5109 6.6263 0.00829817 1.54545 -0.0670334 -0.266611
22 1 1.66966 8.31482 1.76768 1.52916 0.925284 -0.74288
23 1 3.29722 6.6343 0.16313 0.00889789 -0.464885 1.81805
24 1 5.05946 8.33871 1.70567 -0.382347 0.0239043 0.993059
25 1 6.52251 6.64527 0.0893393 -0.730179 2.05757 0.302854
26 1 8.35986 8.23676 1.82904 0.570194 -1.17152 0.0913829
27 1 9.87402 6.65742 0.0698158 -1.06983 0.973755 -0.44528
28 1 11.5487 8.40531 1.70656 -0.449909 -0.409045 -0.526846
29 1 13.2785 6.61451 0.00523967 -0.861367 -0.558499 1.98066
30 1 14.9489 8.33346 1.65099 1.34355 -1.19027 -0.100554
31 1 0.031146 10.0482 0.112657 -0.117199 1.47822 -0.378877
32 1 1.69409 11.694 1.71559 -1.59289 1.14927 0.814027
33 1 3.30293 9.95949 0.109243 -0.581175 0.849921 0.37332
34 1 5.07546 11.6188 1.68019 -0.128273 0.858336 -1.89853
35 1 6.69593 10.0245 0.112309 0.353861 0.990272 -0.390878
36 1 8.30993 11.598 1.80659 0.471029 -1.46535 0.848442
37 1 9.89981 9.9288 0.0967084 -0.296493 0.346022 -0.813054
38 1 11.5759 11.6389 1.62316 -0.0330005 1.1697 1.41579
39 1 13.1904 9.98347 16.4642 -0.550829 -0.135212 0.366148
40 1 14.8545 11.6493 1.71786 1.48456 2.08179 0.457579
41 1 16.4488 13.1907 0.0276567 0.362302 1.05954 -0.900742
42 1 1.78262 14.8936 1.60947 -0.208761 -1.71604 0.133295
43 1 3.37102 13.2658 16.5173 0.94138 0.016789 -0.730909
44 1 5.02628 14.9557 1.67682 0.963925 0.942034 -0.457026
45 1 6.58516 13.2729 0.0539446 0.136756 -0.132839 -0.367483
46 1 8.294 14.9554 1.64347 0.0544179 0.106216 -0.0947557
47 1 9.88214 13.2455 16.5163 0.244641 -0.624204 -1.01155
48 1 11.5789 14.9016 1.54435 0.6202 -0.15501 -0.180137
49 1 13.19 13.1741 16.4944 -0.199637 1.93484 1.10541
50 1 14.783 14.8722 1.59214 0.546782 -1.09194 0.427463
51 1 16.5141 16.4986 3.16441 0.750688 1.39313 0.465116
52 1 1.61972 1.56347 4.89545 0.159343 -1.26195 -2.00661
53 1 3.42618 0.111281 3.24411 1.10069 0.452479 1.73169
54 1 5.07373 1.6649 4.9849 -1.2621 -0.310165 0.319562
55 1 6.71492 0.175709 3.38536 -0.0657022 -0.416845 1.77751
56 1 8.30687 1.75815 5.11269 -1.7559 1.51569 1.12384
57 1 9.96258 0.120281 3.24966 -0.669029 -0.563128 0.403619
58 1 11.5634 1.67411 4.95423 0.369265 -0.684077 -0.696825
59 1 13.128 0.0351635 3.21977 2.20488 0.60942 -0.622963
60 1 14.9234 1.61718 4.83793 0.207012 0.482414 -0.860262
61 1 16.4948 3.31193 3.27745 0.152641 0.185127 0.836809
62 1 1.64321 4.91268 4.99367 1.2338 -0.587358 -1.05521
63 1 3.21878 3.27637 3.31922 -1.66784 0.932207 -0.870367
64 1 4.95219 4.91082 5.01243 0.21672 0.177852 1.03656
65 1 6.66031 3.25626 3.34064 0.736934 -0.15301 -0.711327
66 1 8.31774 5.01157 5.1182 1.3623 0.294113 0.387746
67 1 9.92549 3.30562 3.28685 -1.36762 -1.84055 -0.130299
68 1 11.6188 5.02196 4.93952 -1.95099 1.04828 -0.356445
69 1 13.2106 3.31693 3.24871 -1.25541 0.0454622 -1.22439
70 1 14.8035 4.97139 4.99037 0.6901 0.960692 1.70983
71 1 16.4865 6.69695 3.33234 -1.29846 -0.170294 1.93227
72 1 1.74695 8.36478 4.99127 1.4029 -0.410633 0.78663
73 1 3.38972 6.6752 3.44815 0.585209 0.398072 1.3116
74 1 5.0153 8.25243 5.12738 -0.633276 -0.37767 1.10003
75 1 6.56265 6.60183 3.34683 0.961215 1.14883 -1.33952
76 1 8.28094 8.18315 5.17583 0.226489 0.648541 -0.181088
77 1 9.93076 6.67589 3.43763 0.584172 2.4676 0.831802
78 1 11.6771 8.29287 5.03422 -0.385327 2.5017 -0.879902
79 1 13.2304 6.7233 3.3182 0.109113 0.867482 -1.16562
80 1 14.9733 8.24689 5.06954 -0.699411 0.345596 3.06742
81 1 0.0615672 9.89028 3.30452 -0.670304 -0.26562 0.469962
82 1 1.76345 11.6289 4.97541 -0.180389 1.69039 0.478627
83 1 3.52835 9.93944 3.38775 -0.399145 0.426529 -0.791798
84 1 5.14384 11.6008 4.95869 -1.86163 0.892356 -0.639932
85 1 6.72881 9.87048 3.47807 0.896122 -1.80158 1.50476
86 1 8.26219 11.6132 5.05437 0.921293 -0.745622 -0.0350061
87 1 9.90015 9.95149 3.39237 2.03739 -1.96015 1.01364
88 1 11.5873 11.4903 4.96359 0.0681198 -1.32365 -0.871253
89 1 13.2853 9.91402 3.31946 -0.632674 0.21247 1.36533
90 1 14.9161 11.5565 4.94672 -0.0533159 2.47744 0.920534
91 1 0.0177672 13.2589 3.33083 1.26676 -0.165708 0.31832
92 1 1.81064 14.8808 4.94662 1.66937 -1.72139 0.798099
93 1 3.35841 13.3366 3.26205 0.339255 -2.89882 -1.43315
94 1 4.97153 14.8849 4.97531 -1.31012 0.95362 1.52089
95 1 6.68539 13.3286 3.42779 0.852557 -0.0295139 -0.228125
96 1 8.32721 14.9795 5.00537 0.732168 -1.72846 1.38142
97 1 9.95119 13.3164 3.29112 1.65619 0.280961 0.0492099
98 1 11.6313 14.9822 4.94576 -0.493274 -1.16807 -0.556664
99 1 13.1002 13.2149 3.32572 1.68974 0.961133 -1.61975
100 1 14.7883 14.9012 4.89446 0.482931 -1.6354 -0.302782
101 1 0.0183036 16.4618 6.54414 -1.76959 0.868143 2.79123
102 1 1.57073 1.56255 8.11769 0.275738 -2.8448 -1.52431
103 1 3.33995 16.4302 6.57259 0.413485 -0.533537 1.42892
104 1 4.86958 1.66785 8.20291 1.16303 -0.23002 -0.734026
105 1 6.67354 0.128672 6.65159 2.29128 -1.84711 -0.294134
106 1 8.22621 1.62838 8.36446 1.02294 2.07366 0.169208
107 1 9.94622 0.0518485 6.65012 -1.70372 -0.805321 -0.180519
108 1 11.5836 1.6516 8.23766 -1.35625 2.30941 0.447323
109 1 13.2976 0.0248199 6.58986 -0.477481 3.03696 0.462525
110 1 14.9054 1.60622 8.19057 -1.18367 -1.37573 -0.33
111 1 0.0188135 3.37191 6.54916 -0.557391 0.382013 -3.0834
112 1 1.64545 4.9878 8.26109 -0.451687 -0.362257 0.996168
113 1 3.27661 3.27234 6.48545 -0.906714 0.980885 -0.0931044
114 1 4.74436 4.86499 8.26696 1.99393 0.987709 0.157969
115 1 6.5938 3.3982 6.66213 -0.317547 -0.445626 -0.186488
116 1 8.1842 4.92801 8.36573 0.529079 0.165442 -0.796889
117 1 9.8773 3.34966 6.68696 -0.0492386 -0.142047 1.13025
118 1 11.458 4.96694 8.30001 -1.39755 -1.54923 -0.0876374
119 1 13.2423 3.37287 6.59628 1.54103 0.558188 0.334293
120 1 14.8628 5.00546 8.25969 -1.01063 0.279482 -1.31396
121 1 0.0425491 6.61344 6.58295 -0.0838105 -1.7514 -1.42324
122 1 1.58417 8.24195 8.27728 0.428337 -1.58989 0.102979
123 1 3.25659 6.58507 6.63066 -0.510912 -0.805242 2.49917
124 1 4.95622 8.21781 8.34786 0.173632 -0.999228 0.151973
125 1 6.54407 6.51724 6.74501 -0.0766089 1.25424 -0.0127858
126 1 8.32037 8.12531 8.36172 -1.66281 1.35074 0.873487
127 1 9.98348 6.58113 6.73081 0.899816 0.0109236 2.07758
128 1 11.6235 8.20101 8.32298 -0.196122 -0.220938 -2.52325
129 1 13.1713 6.55091 6.58649 0.686141 0.28782 -0.667348
130 1 14.8385 8.29056 8.19479 -1.45924 -2.4958 -0.758697
131 1 0.0617995 9.9497 6.58423 0.0191657 -1.41895 0.411326
132 1 1.66387 11.5764 8.1537 0.644679 1.55671 0.0717702
133 1 3.46914 9.93427 6.62717 -1.88844 -0.606125 2.95022
134 1 4.94376 11.4795 8.32348 1.28635 -0.506434 0.0549004
135 1 6.78664 9.8711 6.75241 2.10264 1.14652 2.59737
136 1 8.23141 11.5798 8.34218 1.72636 1.12161 3.13794
137 1 9.94214 9.88017 6.64991 -0.871522 2.72581 -1.6567
138 1 11.4953 11.4919 8.36059 0.190677 -2.16283 -0.562799
139 1 13.2836 9.91899 6.64376 -0.124774 -0.0191882 0.526784
140 1 14.9057 11.623 8.17889 1.99347 -0.0615769 1.47184
141 1 16.5082 13.2348 6.49759 0.945946 0.190989 -0.569843
142 1 1.66707 14.7792 8.17632 -1.38162 1.44064 1.18536
143 1 3.34024 13.1943 6.59103 -1.63226 -0.152349 1.03384
144 1 5.00591 14.7553 8.15165 -0.0353444 0.699005 -1.97074
145 1 6.70054 13.2734 6.61469 0.252616 0.608672 -0.161518
146 1 8.26012 14.7818 8.33602 -0.610624 -1.95649 -0.120292
147 1 9.8562 13.2821 6.63538 -1.24263 0.191447 0.00776637
148 1 11.5524 14.741 8.27434 -0.22673 0.333465 -1.54292
149 1 13.1252 13.0951 6.57582 2.24184 -0.853116 -0.954604
150 1 14.8163 14.8033 8.09662 -0.0416323 0.0630489 -1.29819
151 1 16.4952 16.3406 9.76074 0.545389 1.16864 -1.73262
152 1 1.53036 1.47516 11.486 -0.983623 -0.973887 0.0558338
153 1 3.3415 16.4359 9.82677 -0.562319 -0.650244 2.27243
154 1 4.90137 1.47937 11.4555 1.74307 -2.51365 -0.0629672
155 1 6.62289 16.453 9.86113 -1.48555 -0.868035 -2.17752
156 1 8.25075 1.64477 11.46 0.441583 -1.48247 0.701756
157 1 9.84409 0.0289346 9.84493 -0.736594 0.854796 -2.47122
158 1 11.6554 1.65703 11.4012 -0.0499019 0.792772 1.36046
159 1 13.1705 16.3853 9.7944 -1.30374 -1.78715 -1.93364
160 1 14.8353 1.54504 11.4451 0.408437 -2.33522 -0.653022
161 1 16.4525 3.29063 9.82745 1.5368 -0.862719 -1.81194
162 1 1.5889 4.95752 11.6468 -1.00239 -0.0179089 -0.300471
163 1 3.22771 3.16824 9.85035 2.15318 -0.364247 -1.43873
164 1 4.77337 4.99065 11.6017 -0.230855 1.76881 -0.806269
165 1 6.45888 3.30782 10.0586 2.5296 1.57834 0.914321
166 1 8.01965 4.98321 11.5846 -0.284114 -3.56357 0.0780743
167 1 9.91518 3.38493 9.9381 0.501536 0.0044424 1.88924
168 1 11.5638 4.97115 11.5263 -0.47386 -1.06517 2.86982
169 1 13.2404 3.29863 9.93561 -3.06681 0.436368 1.63552
170 1 14.8421 5.03767 11.5254 1.60984 -0.176154 -0.12937
171 1 0.00630812 6.66948 9.99736 1.54727 1.30706 0.154122
172 1 1.57689 8.26358 11.6543 -0.998583 0.90419 1.18864
173 1 3.27053 6.6099 9.91128 1.14321 1.90462 1.53957
174 1 4.93762 8.1523 11.5987 -0.675767 -1.02173 -0.62533
175 1 6.53825 6.6069 9.95868 1.05482 -1.29662 -2.72402
176 1 8.16932 8.22116 11.6142 -1.82735 2.09027 -1.67953
177 1 9.91205 6.62374 10.0761 1.24065 -1.13509 0.619927
178 1 11.5622 8.23889 11.5722 -0.387234 2.52243 -1.88031
179 1 13.2001 6.63954 9.87111 -1.00628 0.701431 1.15996
180 1 14.8756 8.24648 11.5678 -1.81613 1.49431 -1.25467
181 1 0.0782139 9.97998 10.0107 -0.0117872 -2.08491 1.32967
182 1 1.62637 11.6063 11.5719 -0.014888 1.69459 0.534196
183 1 3.31143 9.95082 9.90591 -0.574479 -0.510839 2.59081
184 1 4.88881 11.3908 11.6101 -0.588863 -0.705931 1.11176
185 1 6.54532 9.8536 9.96341 0.329542 0.13206 -0.381372
186 1 8.19585 11.4748 11.5338 1.23919 0.737914 0.249766
187 1 9.75044 9.88869 9.9308 -1.98807 1.27947 -0.94865
188 1 11.5215 11.4785 11.4532 -0.67489 1.38765 1.16655
189 1 13.2612 9.90496 9.86095 -0.059013 -0.923945 0.0760797
190 1 14.7309 11.4996 11.583 -1.39949 -1.17121 1.4424
191 1 0.00653467 13.1088 9.86968 0.241158 -0.886011 -0.579712
192 1 1.62811 14.7205 11.5297 -0.564762 0.264429 -2.48954
193 1 3.29968 13.2279 9.92911 0.22098 1.25993 0.168614
194 1 4.99998 14.7529 11.4147 0.65123 1.45932 -0.890222
195 1 6.537 13.1553 9.8787 -3.81136 -0.679115 1.12222
196 1 8.09399 14.9023 11.4831 -0.847823 -0.517987 -2.5886
197 1 9.88663 13.1931 9.91473 2.22626 -0.415271 0.483734
198 1 11.3874 14.8767 11.4867 -1.67108 -0.882319 -1.00527
199 1 13.1834 13.1315 9.84493 -0.778645 -1.59621 1.3476
200 1 14.8134 14.7622 11.4555 0.591023 -2.90312 -2.07333
201 1 16.5009 16.4435 13.1242 0.440645 -0.587801 0.535029
202 1 1.61068 1.57525 14.827 -0.583136 0.428927 -2.15505
203 1 3.30406 16.4215 13.1522 -0.229459 0.0231525 -0.833932
204 1 4.96781 1.59904 14.7972 -0.349594 -0.782082 0.683894
205 1 6.5637 16.4657 13.1452 -0.381576 -0.106523 0.0816132
206 1 8.29243 1.69399 14.7787 0.384462 -1.13383 -1.31334
207 1 9.82751 0.0239128 13.139 -2.57267 1.15277 0.617834
208 1 11.6601 1.71344 14.6647 -1.00139 -1.09909 -1.70191
209 1 13.1872 16.4211 13.0554 0.377992 -0.852378 -0.325071
210 1 14.8648 1.64254 14.7442 -1.13454 0.73973 -1.73418
211 1 16.4606 3.20803 13.0791 2.07068 -0.68371 -1.49777
212 1 1.53462 4.88876 14.8918 0.835222 -1.23191 1.42537
213 1 3.29597 3.21884 13.2134 -0.426836 -1.1778 1.0412
214 1 4.88476 4.89318 14.9414 0.0909557 0.41829 -0.70247
215 1 6.5368 3.29354 13.2128 2.27125 -1.85897 -2.17416
216 1 8.15171 4.95849 14.843 1.14206 0.815378 0.263036
217 1 9.88943 3.22295 13.0961 -0.703235 0.953973 -1.10337
218 1 11.5481 5.01842 14.8688 -0.73394 0.353619 -2.17758
219 1 13.2729 3.29446 13.0909 -1.86678 -0.179922 -0.490899
220 1 14.8544 5.02062 14.8243 -0.242638 0.623349 -0.0633676
221 1 0.0106066 6.62728 13.2755 0.983933 1.28442 0.369581
222 1 1.68882 8.28782 14.9691 0.685085 1.02854 1.68015
223 1 3.26553 6.56217 13.3788 2.04601 0.547564 0.764794
224 1 4.95143 8.29464 15.0078 -1.21159 0.409112 -0.421097
225 1 6.56188 6.70494 13.3722 -0.0986018 0.123479 -0.380984
226 1 8.36874 8.33362 15 -0.172825 -0.49379 0.314249
227 1 9.79452 6.59554 13.1949 -0.664153 -3.23182 -0.77756
228 1 11.5948 8.29613 14.8891 0.514291 -0.842421 0.322561
229 1 13.2139 6.65984 13.2687 1.82379 -0.0740774 -1.59401
230 1 14.9143 8.28782 14.9872 -0.278007 1.61844 -0.685632
231 1 0.0195271 9.9022 13.306 -1.07301 1.04172 1.05117
232 1 1.67126 11.6299 14.8905 0.330747 -0.670038 -1.46945
233 1 3.36881 9.87592 13.1979 -1.45083 0.598081 -1.18295
234 1 4.8843 11.6134 14.8803 3.11878 -0.815468 -0.776914
235 1 6.54849 9.87639 13.287 -1.92115 0.219779 -0.588856
236 1 8.24733 11.4956 14.9138 0.324903 0.475658 -0.453398
237 1 9.95308 9.9585 13.301 0.912257 1.53754 -0.904854
238 1 11.5728 11.6143 14.7719 0.976983 -1.39192 -1.15778
239 1 13.224 9.85451 13.2315 1.30624 -0.321272 -0.27984
240 1 14.853 11.6387 14.836 -1.32728 -1.20647 0.190108
241 1 0.0630058 13.2423 13.1998 -1.56373 -0.528921 -0.825476
242 1 1.75946 14.8516 14.8049 -0.719366 0.527703 -0.640214
243 1 3.2937 13.1435 13.1652 0.769316 0.340031 0.379531
244 1 4.95811 14.8688 14.9378 -0.678305 0.356625 0.574194
245 1 6.49409 13.1217 13.1781 0.913981 1.38153 0.398613
246 1 8.22143 14.7555 14.8138 -0.68822 0.288851 1.16303
247 1 9.87351 13.1006 13.1818 -0.414411 -1.35598 -0.256948
248 1 11.5336 14.8433 14.7619 -0.559975 1.04721 -0.521899
249 1 13.1027 13.1613 13.0246 -0.110251 -1.07356 0.331293
250 1 14.8656 14.7964 14.7811 -0.16976 -2.19044 0.0855407
