ITEM: TIMESTEP
100
ITEM: NUMBER OF ATOMS
250
ITEM: BOX BOUNDS pp pp pp
0.0000000000000000e+00 1.6520000000000000e+01
0.0000000000000000e+00 1.6520000000000000e+01
0.0000000000000000e+00 1.6520000000000000e+01
ITEM: ATOMS id type x y z vx vy vz
1 1 16.3902 16.4292 16.4024 -1.5482 1.71234 0.400575
2 1 1.60232 1.60528 1.57852 -0.637695 -1.33617 -0.75847
3 1 3.40005 16.4995 16.423 1.4619 0.359049 1.4238
4 1 4.91539 1.67235 1.68557 2.33777 -0.961014 -0.65439
5 1 6.67204 0.0566846 16.4783 0.625623 2.12609 0.76328
6 1 8.2836 1.66433 1.70382 0.0481258 -1.19675 -0.738088
7 1 9.96551 16.4794 16.4291 -0.511798 1.5061 -1.90696
8 1 11.5795 1.69552 1.44045 0.416897 1.4904 -0.538778
9 1 13.1674 16.4703 16.4267 -0.683293 1.19618 -0.867271
10 1 14.7876 1.56141 1.5232 0.219322 0.239143 -1.14349
11 1 0.0117953 3.28245 16.5142 -1.68593 0.80486 -1.06144
12 1 1.62543 4.97232 1.75579 0.0908439 0.554429 -0.227039
13 1 3.18059 3.25396 16.4945 0.950034 0.628281 0.515665
14 1 4.92957 4.92325 1.81932 1.35298 0.894419 -0.54493
15 1 6.53949 3.30039 0.0886427 0.83404 1.43539 0.0461638
16 1 8.27306 4.90732 1.66482 1.33999 0.13422 1.74154
17 1 9.91577 3.40415 16.4068 1.75714 -0.561779 -1.64416
18 1 11.6432 4.88319 1.64081 0.683551 -1.22009 0.63337
19 1 13.2665 3.26105 16.3624 -0.993544 0.586277 -0.17858
20 1 14.7537 4.92081 1.68597 2.40541 0.934892 0.624842
21 1 16.445 6.74188 0.12495 1.08365 -0.243712 0.745443
22 1 1.6396 8.37914 1.80893 0.847838 -0.647196 0.424122
23 1 3.20642 6.67265 0.0329556 -1.01882 -2.10054 0.944336
24 1 5.06923 8.23603 1.67053 0.384385 -1.30479 0.0447207
25 1 6.67803 6.60851 0.0482309 0.434846 -1.43414 -0.0651041
26 1 8.46824 8.25212 1.56961 0.84848 0.526953 -0.389448
27 1 9.94938 6.51176 16.5085 0.48352 -2.0145 1.74474
28 1 11.5283 8.18349 1.7167 -1.34096 -0.212687 0.420948
29 1 13.1774 6.63833 0.0805253 -1.45619 0.979244 -0.36699
30 1 14.7936 8.43681 1.7736 -0.589066 1.17578 1.71637
31 1 16.4907 10.0193 0.158343 -0.546248 -1.08433 0.242665
32 1 1.75319 11.6907 1.73359 1.73347 -1.39701 0.0795923
33 1 3.35295 9.97242 0.124512 -1.89024 -2.08718 0.252785
34 1 5.11169 11.6146 1.72969 2.29785 -0.913509 0.704695
35 1 6.69092 9.82626 16.4981 0.33502 0.247391 1.28651
36 1 8.43726 11.5182 1.64285 -0.926743 1.34662 -0.749712
37 1 9.87422 9.89009 16.4627 -0.792101 3.17269 0.115683
38 1 11.648 11.6153 1.71259 -0.398234 -0.117065 -0.767652
39 1 13.1021 9.89187 0.0393501 -1.86298 -0.119658 0.90326
40 1 14.9674 11.6565 1.60632 -0.649519 0.548471 0.388415
41 1 0.0420881 13.1544 16.4358 -1.49579 0.442748 0.66963
42 1 1.74997 14.8348 1.54615 1.77502 2.7704 -1.60413
43 1 3.39435 13.2666 16.5041 -0.529167 -0.483699 1.49499
44 1 5.07384 14.8287 1.62467 0.630395 1.15915 -0.999657
45 1 6.71496 13.2661 16.4569 1.99878 -0.501062 -0.337767
46 1 8.29943 14.9761 1.68968 0.943922 -0.47509 -1.08622
47 1 9.82737 13.2083 16.4495 -1.51334 1.23771 0.634965
48 1 11.5939 14.9728 1.62584 -1.87771 -0.681858 -0.35042
49 1 13.2157 13.1631 16.4851 0.954609 -1.51325 -1.24574
50 1 14.828 14.8933 1.60314 -2.29108 0.262233 -1.11112
51 1 16.4773 16.4539 3.14643 0.128664 -1.44385 -0.0880927
52 1 1.53327 1.56957 4.92774 -3.2215 -2.54515 -1.43102
53 1 3.33877 0.0227314 3.21928 -0.19821 -1.92783 -0.895919
54 1 5.04033 1.65553 4.95264 0.007576 0.425521 -0.336765
55 1 6.64563 0.046721 3.22331 0.442027 -0.39999 -1.9986
56 1 8.28371 1.60998 5.06321 0.9152 0.192175 0.110169
57 1 9.94673 0.168718 3.3056 -0.538983 -1.65253 -2.36152
58 1 11.6028 1.72019 5.01181 0.0573133 0.571202 1.26823
59 1 13.2583 0.0226035 3.32923 0.783191 1.35502 1.82233
60 1 14.8685 1.64721 4.90479 1.46375 -1.52662 0.769824
61 1 16.4648 3.25182 3.23308 -0.119036 -0.693613 -2.17551
62 1 1.62834 4.95773 4.93867 0.493878 0.591396 -1.3624
63 1 3.14333 3.29015 3.32752 -0.519145 0.227275 0.0752915
64 1 4.92283 4.88102 4.99163 0.843992 -0.326326 -0.407642
65 1 6.65377 3.32331 3.38121 2.09144 0.431324 -0.213387
66 1 8.31403 4.92314 5.05675 0.602612 0.761376 -1.6524
67 1 9.86303 3.27207 3.29064 0.67368 -1.33068 -0.803818
68 1 11.5102 4.85375 5.05333 1.26232 -0.133614 -1.24929
69 1 13.1668 3.22929 3.31009 0.324932 0.86812 0.0912631
70 1 14.8268 4.95574 4.91158 2.29695 -0.200996 -0.463679
71 1 16.3276 6.67985 3.28732 0.196283 -0.911226 1.20332
72 1 1.60571 8.27891 4.91221 -1.62507 0.0905922 -0.462182
73 1 3.28662 6.63541 3.30723 1.18822 -0.558955 -0.0978158
74 1 5.05218 8.23488 4.89883 -0.00576685 0.710946 1.16961
75 1 6.70838 6.51597 3.2856 -0.347389 0.419108 1.11937
76 1 8.21104 8.22766 5.0042 -0.188036 -1.42057 1.05354
77 1 9.808 6.4467 3.39738 1.87456 -0.467894 0.95008
78 1 11.476 8.25642 5.09088 -0.0911305 1.11858 -0.567301
79 1 13.0895 6.54801 3.40076 0.985575 0.537569 0.843555
80 1 14.7191 8.31066 5.01805 -1.91161 -0.647149 -0.1974
81 1 16.4665 9.94574 3.36819 0.210533 0.658572 0.700577
82 1 1.77495 11.6194 4.91328 0.628977 0.775075 -1.04004
83 1 3.43065 9.97253 3.34001 1.57795 0.725173 -1.21596
84 1 5.0491 11.579 4.96718 -0.402017 0.855655 0.491902
85 1 6.78977 9.88159 3.30564 0.309266 -0.10796 -0.0858613
86 1 8.4058 11.6662 5.01393 -1.07087 1.36375 -0.309055
87 1 9.88269 9.80431 3.39347 0.597651 -0.0776656 -1.26598
88 1 11.6199 11.6481 4.99952 -1.36575 0.559022 0.237226
89 1 13.1038 9.97179 3.35469 -1.59381 0.467967 -0.973951
90 1 14.9507 11.6329 4.93891 0.852372 1.57378 -0.133646
91 1 0.110776 13.1863 3.27563 -0.409538 1.93671 -0.448
92 1 1.86773 14.8039 4.75518 -0.0745264 1.13101 -1.37264
93 1 3.54527 13.1839 3.32995 1.26601 1.42019 -0.188874
94 1 5.05749 14.899 4.87867 0.931694 1.51119 -0.404719
95 1 6.82982 13.2094 3.28032 1.82596 -1.39139 -1.11895
96 1 8.38615 14.936 5.02923 -0.144764 0.116499 0.878307
97 1 9.99105 13.3777 3.28923 0.95591 1.47912 -0.963984
98 1 11.5066 14.9718 5.0614 -0.176168 1.41864 -0.728994
99 1 13.1732 13.3282 3.25483 -0.00972448 -0.00738411 0.0235344
100 1 14.9284 14.7758 4.91859 -0.923363 -0.503879 0.93901
101 1 16.4764 16.4268 6.57485 -0.288956 -0.469809 -0.39627
102 1 1.64136 1.63436 8.12508 -1.2011 -0.306898 1.78644
103 1 3.29835 0.0574529 6.48609 0.0487427 1.92183 0.894575
104 1 4.9041 1.62691 8.27878 -0.454791 2.15299 0.333613
105 1 6.61628 0.0711186 6.66458 -0.238313 1.23324 0.0675594
106 1 8.24028 1.61266 8.39243 -1.11929 1.50001 0.488432
107 1 9.9759 0.0896174 6.72686 -0.179628 0.765212 -0.396199
108 1 11.5577 1.6645 8.4139 -0.505409 0.722687 -0.320352
109 1 13.1602 0.026847 6.606 -0.234915 -0.351221 -0.360235
110 1 14.8992 1.68045 8.31594 -0.142618 2.17673 -1.1438
111 1 16.4233 3.24555 6.50892 -1.13927 1.88674 -0.710826
112 1 1.6545 4.90494 8.14348 0.348414 -0.96616 0.566921
113 1 3.27471 3.26751 6.51456 -0.684607 -0.0383065 -0.266189
114 1 4.86086 4.86579 8.29181 -2.51661 -3.03197 1.15167
115 1 6.63538 3.24142 6.64025 1.53698 -0.925418 -0.667121
116 1 8.33099 4.97849 8.39937 1.58804 -2.9115 1.57919
117 1 9.93105 3.27659 6.69517 1.06051 -0.817445 -0.534721
118 1 11.6076 4.95946 8.36953 0.529395 -2.3316 0.13153
119 1 13.2584 3.26894 6.6896 0.235239 0.039772 1.01879
120 1 14.8431 5.03482 8.12671 0.648303 0.203682 0.567938
121 1 0.00914604 6.71325 6.44454 0.833067 -1.48636 -0.232475
122 1 1.62238 8.26205 8.187 -1.43467 -0.432277 -2.75256
123 1 3.31109 6.53159 6.56328 -0.469995 -1.02886 -1.69509
124 1 4.83967 8.30696 8.21966 -1.70822 -0.384658 -1.51086
125 1 6.54688 6.44086 6.62283 -1.99243 -0.382721 1.05265
126 1 8.12272 8.22494 8.24529 -0.997834 -2.61175 -0.0300155
127 1 9.87202 6.54578 6.67541 2.62531 0.287598 0.33774
128 1 11.5038 8.35393 8.35862 -0.380893 -1.23202 0.983663
129 1 13.0389 6.66404 6.6393 -0.984564 -1.53659 -0.824053
130 1 14.9335 8.27017 8.18952 1.41909 0.145092 -0.971845
131 1 0.0893381 9.95874 6.52441 -0.65273 2.54444 -1.0609
132 1 1.65935 11.4929 8.27991 -0.243733 0.691329 -0.318413
133 1 3.27027 9.80413 6.53738 0.0664547 -1.4681 1.31706
134 1 4.86739 11.5372 8.27906 2.81241 -0.151184 -2.16703
135 1 6.55014 9.9561 6.60712 -1.52462 0.23837 -0.0106497
136 1 8.25417 11.4952 8.20468 1.66791 -0.242764 0.365414
137 1 9.87877 9.87727 6.58528 1.39081 -1.32839 0.440896
138 1 11.6171 11.6685 8.19878 -0.284896 0.216931 3.16105
139 1 13.1823 9.97182 6.6835 -1.35295 0.271043 -0.711492
140 1 14.8663 11.6795 8.28339 0.609842 0.483216 0.175963
141 1 0.155604 13.1413 6.58107 -0.757594 -0.702499 -2.39027
142 1 1.61697 14.8176 8.1897 1.45523 -0.979547 -1.98921
143 1 3.38442 13.2209 6.59915 0.75758 0.686761 -1.13567
144 1 4.91949 14.8664 8.22926 0.756234 0.69649 -0.511645
145 1 6.58574 13.3343 6.62241 -0.382669 -0.00233351 0.968352
146 1 8.13338 14.8739 8.34479 -0.260787 0.470821 0.310297
147 1 9.87974 13.3533 6.68074 1.00972 0.248811 -0.0368194
148 1 11.637 14.8717 8.35584 -2.47142 -0.556476 -0.609913
149 1 13.3031 13.2344 6.52063 -1.95991 0.669914 -0.456675
150 1 14.8332 14.8314 8.2544 1.3263 -1.21678 -0.642264
151 1 0.0505885 16.5062 9.78593 1.35093 -0.352386 -1.78006
152 1 1.71946 1.63303 11.4899 0.731267 -1.06123 0.570832
153 1 3.20317 16.5027 9.8244 -2.166 0.650023 -1.26227
154 1 4.83727 1.62153 11.5541 -2.01755 0.67397 -0.0250726
155 1 6.57381 0.043743 10.027 -1.90773 2.12593 0.419969
156 1 8.16786 1.70157 11.6301 -0.751217 -0.115252 0.615935
157 1 9.84322 16.4197 10.0593 0.20342 0.572034 -1.16761
158 1 11.5853 1.63836 11.5675 1.57725 -1.10141 0.866093
159 1 13.2192 16.458 9.97473 2.68107 0.0698026 0.533109
160 1 14.9533 1.66344 11.5316 -0.542847 0.600549 -1.44805
161 1 0.058841 3.36439 9.86772 -0.673307 1.26132 0.888483
162 1 1.62416 4.94986 11.5524 -1.55125 1.05308 0.74095
163 1 3.3898 3.32113 9.90415 -1.81727 0.254775 2.50199
164 1 4.91374 4.9197 11.5735 -1.62321 0.0465256 3.20467
165 1 6.67533 3.37947 9.95088 -1.46311 -0.423937 -1.07757
166 1 8.27474 4.9689 11.5979 -0.242723 1.81031 1.11354
167 1 9.95884 3.26818 9.99784 0.79755 -0.461133 2.01572
168 1 11.6876 5.10529 11.4839 1.11862 0.987545 0.908671
169 1 13.2952 3.32694 9.9704 0.781392 1.02486 0.826994
170 1 14.9227 5.01962 11.5379 -1.00533 -0.93302 2.37885
171 1 0.165964 6.56885 9.81139 2.99557 -1.15122 -2.75639
172 1 1.6096 8.20915 11.6195 -0.264788 -1.23682 -2.47715
173 1 3.27678 6.59957 9.94808 -2.47059 1.66883 -0.172639
174 1 4.87824 8.19234 11.5835 -0.216822 -1.01738 0.0749817
175 1 6.64149 6.48002 9.88844 0.968637 0.664305 -1.01643
176 1 8.1667 8.26539 11.5791 -2.10792 0.109817 1.05595
177 1 9.88446 6.68544 10.01 0.00421339 -0.536666 0.120142
178 1 11.6043 8.30784 11.4887 -1.51682 0.890148 0.619541
179 1 13.3532 6.71904 9.92278 2.78683 -0.116411 0.168864
180 1 14.9164 8.30208 11.6548 -0.937642 0.34706 -0.502189
181 1 16.4985 9.85836 9.90837 -1.70262 0.573437 -0.938783
182 1 1.67485 11.4913 11.6295 1.43951 -0.250753 2.83314
183 1 3.2426 9.82792 9.99335 0.205229 0.661939 0.242761
184 1 4.82281 11.5416 11.584 0.182531 0.0178357 1.71864
185 1 6.5194 9.92074 9.82621 -2.49418 -2.33214 -1.68549
186 1 8.133 11.4702 11.4924 1.12757 -1.04566 0.955263
187 1 9.75725 9.95834 9.82803 -0.318951 -1.3638 2.32589
188 1 11.5095 11.5268 11.4283 -0.101382 -1.48437 1.2781
189 1 13.319 9.98353 9.7803 0.196576 -1.74991 -0.558764
190 1 14.7687 11.5622 11.5428 0.905143 0.194058 -0.379588
191 1 0.0409486 13.1388 9.93176 -0.174893 -0.672818 -1.17237
192 1 1.63271 14.7489 11.407 -1.37713 -0.951724 -1.10188
193 1 3.23453 13.1387 9.85982 1.57683 -2.39641 0.980145
194 1 4.86725 14.8246 11.4998 -0.317336 -0.763098 0.433154
195 1 6.55275 13.1794 10.0195 0.584741 -0.0540948 -0.692958
196 1 8.17325 14.8656 11.5909 1.04834 0.0873858 -0.493869
197 1 9.7884 13.2449 9.85969 0.464841 1.00717 1.03247
198 1 11.5404 14.7687 11.6184 -0.167008 0.549975 -0.639945
199 1 13.1919 13.2157 9.88988 0.817619 0.901683 0.94221
200 1 14.9486 14.883 11.5185 1.33905 0.390919 0.272535
201 1 0.0679735 16.4082 13.1607 0.415333 -1.3306 0.5502
202 1 1.64205 1.55902 14.8697 -1.18076 -0.0833762 -0.596652
203 1 3.26728 16.4506 13.0921 -1.53299 -1.7929 0.307147
204 1 4.90209 1.73939 14.9285 -0.860843 1.03149 1.30863
205 1 6.53216 0.12491 13.2972 0.391692 1.10855 -1.94918
206 1 8.18489 1.76898 14.9267 -0.677838 1.61274 -0.73958
207 1 9.93172 16.5077 13.2007 -1.46341 -1.1096 0.19865
208 1 11.623 1.61477 14.7624 -0.974988 2.62466 -0.890581
209 1 13.1732 16.3876 13.199 0.144221 1.56515 -1.00977
210 1 14.9938 1.66477 14.7977 -0.169468 -1.03444 0.580127
211 1 0.127521 3.29536 13.1838 -1.18831 1.29135 -0.858301
212 1 1.54805 5.01837 15.0024 -0.365219 1.38695 0.903884
213 1 3.27742 3.34424 13.2652 -0.698257 -1.05072 1.43631
214 1 4.90581 4.98884 14.9078 -0.68232 0.463266 1.37156
215 1 6.48336 3.38506 13.2037 -1.75193 -0.487754 -0.145992
216 1 8.31806 4.96286 14.8006 0.239073 -2.74389 -1.31576
217 1 10.0582 3.39425 13.1831 0.34457 -0.945156 -0.346528
218 1 11.6633 5.0699 14.7167 1.18193 0.808367 -2.06304
219 1 13.4217 3.28072 13.202 0.696065 -1.40798 -0.147777
220 1 14.955 5.06667 14.9692 -0.887686 -0.348317 -0.296943
221 1 0.0774037 6.63128 13.2702 0.393799 0.496003 -0.853941
222 1 1.51516 8.40654 15.0616 -1.36675 -0.016864 -0.452002
223 1 3.2397 6.58226 13.3123 -0.323767 1.47109 1.47119
224 1 4.93566 8.22677 14.9909 -0.136179 -0.922706 1.07699
225 1 6.50574 6.56218 13.2057 -0.672529 0.517025 0.0796228
226 1 8.31005 8.07546 14.735 -0.144632 -1.62776 1.62788
227 1 9.94105 6.59708 13.1344 -0.133985 0.536346 -0.0257875
228 1 11.5563 8.26639 14.902 -0.32236 0.125207 0.982283
229 1 13.4127 6.69048 13.251 0.107167 1.56491 2.29521
230 1 14.9154 8.42141 14.9259 -0.950597 1.0336 -1.25895
231 1 16.4974 9.98506 13.2182 -0.121853 0.612812 -1.52223
232 1 1.65955 11.5941 15.0015 0.767556 -0.118406 0.691366
233 1 3.2868 9.98384 13.4013 0.637182 0.200113 2.51868
234 1 5.07244 11.5001 15.0329 -0.351916 -0.67695 2.89214
235 1 6.40228 9.7957 13.2043 -0.740988 0.881168 2.24826
236 1 8.23433 11.4697 14.8309 -0.605537 -0.496177 0.738542
237 1 9.80782 9.78773 13.1117 -1.92709 -0.733439 -0.586434
238 1 11.3449 11.5804 14.8626 1.67265 1.54185 0.383314
239 1 13.0978 9.85607 13.1883 0.16035 -1.52128 1.28916
240 1 14.7436 11.535 14.8519 -0.969112 -1.06712 0.866197
241 1 16.4569 13.1795 13.2074 2.36409 -0.540547 -0.699921
242 1 1.66143 14.9052 14.8823 -1.29364 -1.09354 0.703101
243 1 3.30896 13.1855 13.3334 2.24215 -0.354697 1.24807
244 1 5.00393 14.8915 14.7329 -0.0465823 0.203727 -1.44699
245 1 6.59834 13.2318 13.1916 0.0172185 -0.583513 1.59823
246 1 8.3371 14.9433 14.8181 1.28338 -0.549468 -0.399537
247 1 9.8078 13.0709 13.1 0.410242 -0.960622 -2.08051
248 1 11.5334 14.7341 14.8243 -0.199332 0.258629 0.0782448
249 1 13.1274 13.1745 13.1798 1.046 -0.182245 -0.578705
250 1 14.8614 14.8127 14.805 1.22208 0.57966 0.326115
