ITEM: TIMESTEP
200
ITEM: NUMBER OF ATOMS
250
ITEM: BOX BOUNDS pp pp pp
0.0000000000000000e+00 1.6520000000000000e+01
0.0000000000000000e+00 1.6520000000000000e+01
0.0000000000000000e+00 1.6520000000000000e+01
ITEM: ATOMS id type x y z vx vy vz
1 1 0.0125543 0.0269689 16.4563 -0.899091 -1.80739 -2.18659
2 1 1.6515 1.64141 1.72122 -1.45202 -2.14308 1.87996
3 1 3.26508 0.061023 16.4619 -0.818583 0.758289 1.70324
4 1 4.81387 1.66357 1.83501 0.401038 -1.9206 -0.628557
5 1 6.48629 0.0443905 0.121396 0.664024 2.31039 0.709402
6 1 8.03022 1.64165 1.70321 0.466238 0.942716 1.06786
7 1 9.8115 16.4886 0.25372 -0.321332 -0.850412 1.0877
8 1 11.572 1.61401 1.83483 -1.12984 2.28021 0.388951
9 1 13.1656 0.053304 0.106222 0.927695 1.74161 -0.806334
10 1 14.8936 1.62549 1.67966 2.60096 -0.179446 -2.67076
11 1 0.0337677 3.2376 16.4448 -0.300026 0.0866643 0.282133
12 1 1.53233 4.94121 1.66301 -2.26708 1.03957 0.23678
13 1 3.27001 3.29618 0.0610748 -0.0675496 0.598149 -0.827504
14 1 4.87448 5.07832 1.74223 0.714114 0.877567 0.830235
15 1 6.45243 3.3472 0.0537675 -0.511494 0.16756 -2.42548
16 1 8.18264 5.01537 1.68644 -0.13039 -0.368046 -0.00515304
17 1 9.84842 3.33401 0.103348 -0.175134 -0.92049 0.991537
18 1 11.4992 4.88039 1.66974 1.18726 0.416629 1.70141
19 1 13.3566 3.30417 0.124023 1.91273 -0.919568 1.12902
20 1 14.9383 4.96499 1.60787 1.88886 0.279533 -0.0980696
21 1 0.0872599 6.65108 16.3869 0.502708 -2.46904 -1.58163
22 1 1.54601 8.27832 1.60374 -0.0341978 -0.0557222 0.521769
23 1 3.21053 6.7555 16.4616 -0.690648 -0.816492 -0.063173
24 1 4.91489 8.40948 1.40752 0.697094 -0.720493 0.15959
25 1 6.65125 6.57057 16.3356 -0.105331 -3.01944 1.20353
26 1 8.24868 8.12914 1.55643 0.713915 -2.05338 -0.47502
27 1 9.87474 6.42483 16.3224 -0.309635 -0.922472 -0.338068
28 1 11.4674 8.20151 1.51645 0.130364 0.168879 -1.08852
29 1 13.2715 6.543 16.4809 -1.6635 -1.32047 -0.324911
30 1 14.8682 8.18081 1.7247 0.791092 -0.480741 0.816022
31 1 16.4981 9.90834 16.4674 0.0727853 -0.950644 1.50669
32 1 1.70096 11.49 1.51519 0.377219 -0.714898 -2.19272
33 1 3.18753 9.90953 16.3213 -0.531618 -0.187563 -1.46705
34 1 4.94148 11.5138 1.45626 -1.0936 -0.661138 -0.938184
35 1 6.63757 9.93318 16.3112 1.14592 1.16678 -0.0456307
36 1 8.28662 11.4765 1.59717 -0.389283 1.29189 -1.08829
37 1 9.87451 9.73947 16.4692 -1.08035 -2.35931 2.32841
38 1 11.6804 11.5575 1.6712 1.07692 0.0664291 0.494652
39 1 13.2358 9.82605 0.00481199 0.162216 -0.0353065 -1.14122
40 1 14.986 11.378 1.67473 -0.391176 0.43526 0.0303981
41 1 16.425 13.2471 0.072327 -0.727007 -0.307507 0.806807
42 1 1.74633 14.8389 1.55076 0.500553 0.388786 -0.390663
43 1 3.29211 13.2736 16.474 -0.615256 0.97368 -1.1794
44 1 5.00076 14.8073 1.75246 0.755114 4.06763 1.12981
45 1 6.65193 13.1313 0.0189246 0.170816 -2.80107 1.66839
46 1 8.26057 14.8059 1.71361 1.05841 -0.737425 -1.08281
47 1 9.99929 13.125 0.0425246 1.82264 -0.0842385 -1.47605
48 1 11.7596 14.807 1.72218 -1.17571 -0.197852 -0.646044
49 1 13.2905 13.1719 0.0940444 0.65968 -0.572901 -1.07885
50 1 14.8322 14.9459 1.63275 1.25192 0.749251 -1.60888
51 1 16.4476 16.4541 3.23176 0.525363 1.55915 -0.552381
52 1 1.49509 1.68233 4.96963 0.51028 -2.12321 -2.35631
53 1 3.23897 16.3944 3.42841 -0.844183 -1.04421 -0.952792
54 1 4.85753 1.65432 5.02467 2.01678 -1.29235 0.11101
55 1 6.51872 16.4529 3.37149 -1.17106 1.26697 -1.00372
56 1 8.10707 1.5657 4.81896 -1.15403 0.0574143 0.314798
57 1 9.8458 16.4157 3.3112 -0.0981595 -0.234004 -1.21789
58 1 11.4634 1.55981 5.03183 0.0353914 -2.54419 -0.519612
59 1 13.3182 0.0937649 3.33006 1.98462 0.13143 0.799096
60 1 14.854 1.77797 5.05145 -0.787745 1.17665 -0.208896
61 1 16.5181 3.29895 3.34592 -2.10246 0.215959 -0.287915
62 1 1.66816 4.95288 4.89473 -0.220579 -0.819813 -1.88559
63 1 3.16291 3.35175 3.35424 0.202118 -0.241756 -3.02604
64 1 4.93841 4.98196 4.94754 -0.25843 0.607223 -0.572635
65 1 6.47195 3.36102 3.29913 1.12265 1.77984 0.40086
66 1 8.11373 5.13939 4.80905 0.443859 -0.461933 -1.06996
67 1 9.71149 3.2692 3.32518 0.515083 1.19975 1.30182
68 1 11.3614 4.94507 4.85643 -1.3847 0.667607 -0.619573
69 1 13.3232 3.28789 3.34943 -1.48031 -0.569292 0.926418
70 1 14.71 4.95234 4.95761 -0.041283 0.915958 -0.582566
71 1 0.00746077 6.66768 3.39243 -0.393368 -0.679061 0.42963
72 1 1.64972 8.26116 5.06542 1.29645 0.569044 2.30906
73 1 3.3534 6.62418 3.32461 -1.8668 0.867041 -0.451986
74 1 4.82637 8.42412 5.00649 0.346995 -0.667335 2.93454
75 1 6.45919 6.79809 3.1545 -0.335931 -1.00753 1.65397
76 1 8.2508 8.34339 4.80724 1.94001 1.21075 0.310778
77 1 9.7814 6.65162 3.19003 0.115226 -0.161665 -0.959723
78 1 11.5665 8.27157 4.87748 1.27974 0.250436 -0.513487
79 1 13.1431 6.48882 3.25541 -1.33603 1.70927 -0.536889
80 1 14.8808 8.14392 4.96442 1.39524 -0.32905 -0.722184
81 1 0.138318 9.87532 3.29787 -0.0473269 -0.19583 0.785592
82 1 1.72378 11.4345 5.05049 -1.15697 1.70532 -2.49814
83 1 3.32576 9.9244 3.20234 -0.969111 0.697565 -3.16561
84 1 4.7916 11.533 4.95145 1.61456 -0.314908 -1.65836
85 1 6.56332 9.95622 3.21441 -1.81065 -1.29814 -0.00523417
86 1 8.29904 11.4803 4.84939 -0.663284 -0.346868 0.101856
87 1 9.82056 9.8552 3.14049 -1.02888 -1.86108 -1.07359
88 1 11.7847 11.4863 4.90708 1.21213 0.533895 0.0619981
89 1 13.2627 9.77301 3.32094 -1.86399 -2.35296 -0.0230097
90 1 15.0632 11.5688 5.02384 0.663276 1.80592 0.227868
91 1 0.300523 13.1812 3.2799 -1.35388 -1.33075 0.903891
92 1 1.6748 14.8214 5.15041 -0.483802 0.687234 -1.40371
93 1 3.25283 13.1923 3.23939 0.175283 -0.471465 -2.43504
94 1 4.74446 14.7004 5.11673 -1.1235 0.0571399 2.47275
95 1 6.46038 13.1947 3.40457 -0.978173 0.574588 -0.703935
96 1 8.28188 14.7037 4.84997 0.715322 -0.726286 -0.897807
97 1 10.0097 13.1948 3.3663 -0.700897 1.75763 -2.07075
98 1 11.8162 14.9324 4.82468 0.681342 -1.03381 2.05551
99 1 13.4961 13.0879 3.38195 -0.98998 0.437503 -1.39932
100 1 14.8986 14.9009 4.93586 1.06011 0.710725 0.29177
101 1 16.4911 0.145314 6.75142 0.434559 0.685796 -1.07906
102 1 1.57265 1.77281 8.20415 1.74249 0.797597 0.58308
103 1 3.24525 0.0376701 6.6829 -1.87923 0.228693 0.766992
104 1 5.05998 1.78356 8.17365 -0.854392 2.19642 1.48202
105 1 6.51886 0.00915291 6.5658 0.251508 2.0852 0.712862
106 1 8.33675 1.51735 8.23602 0.0896129 3.27173 0.00960196
107 1 9.83145 16.3661 6.41099 0.328389 0.355317 -1.44203
108 1 11.5401 1.63917 8.2229 -2.15631 2.34573 -1.27716
109 1 13.179 0.0496241 6.61499 -0.459372 0.818528 -1.64944
110 1 14.713 1.83024 8.17913 0.993921 2.74643 1.0004
111 1 16.4485 3.47039 6.61519 -0.343945 0.195414 -1.4965
112 1 1.93807 4.9928 8.27778 -0.901425 0.729627 0.206291
113 1 3.33161 3.3148 6.51776 0.439003 1.64917 -1.62777
114 1 5.22272 4.83209 8.21831 0.247032 -2.61964 -2.70013
115 1 6.62615 3.3073 6.48272 0.418474 -0.947068 -0.839011
116 1 8.41739 5.01677 8.21438 -0.718482 0.567598 2.20156
117 1 9.80917 3.23678 6.54413 -0.975252 -1.97813 0.108131
118 1 11.4118 5.00399 8.33918 -0.224386 -0.254018 -0.346296
119 1 12.9754 3.40766 6.57338 -2.95549 0.531089 0.0836336
120 1 14.7854 4.83858 8.33974 -1.16105 -2.25764 -0.234168
121 1 0.0163422 6.44649 6.64933 0.532471 -0.766001 -0.688239
122 1 1.57335 8.12684 8.45815 -1.03801 -1.49759 0.401717
123 1 3.31029 6.59541 6.58804 -0.790415 -1.87961 -0.538708
124 1 4.92171 8.3716 8.34744 -0.306373 0.53648 -1.47322
125 1 6.62858 6.68669 6.61151 2.61345 0.438803 -2.0759
126 1 8.29209 8.51006 8.09049 0.510466 -2.74158 1.49562
127 1 9.88215 6.67903 6.39445 -0.14667 -1.05452 -1.87652
128 1 11.6905 8.34844 8.09552 -0.29577 -0.657176 -1.98723
129 1 13.1178 6.57059 6.56749 0.157528 -1.46753 -2.55387
130 1 14.8153 8.19186 8.24953 -0.793607 -1.00986 0.928618
131 1 16.5114 9.73578 6.70926 0.862392 0.829063 -1.31173
132 1 1.47772 11.4439 8.48286 -2.34832 1.16621 -1.47742
133 1 3.20901 9.93051 6.80952 0.112744 0.677627 -1.02368
134 1 4.75637 11.5357 8.34348 -0.961041 0.469554 0.0151281
135 1 6.54267 9.91246 6.53057 -1.12605 -1.17174 1.57126
136 1 8.24001 11.6724 8.13429 0.155314 0.461789 -0.0920478
137 1 9.96548 10.105 6.48797 1.22096 0.797566 0.0208737
138 1 11.7073 11.6066 8.3075 -1.81789 0.684065 1.54004
139 1 13.151 9.94868 6.59734 -0.239701 -0.725204 -1.1355
140 1 14.8042 11.5404 8.34287 -0.615292 -0.00731008 1.29789
141 1 0.041036 13.0367 6.65037 -0.392486 -2.15925 -0.514042
142 1 1.62632 14.8412 8.40445 -0.350548 0.0618126 2.35118
143 1 3.28477 13.1039 6.71757 0.456911 -1.80533 0.885855
144 1 4.88999 14.7608 8.28352 0.304489 -0.581209 -1.75666
145 1 6.60631 13.1895 6.5644 -0.289473 1.02857 -0.156161
146 1 8.34053 14.8141 8.16201 1.90889 0.104983 -0.920639
147 1 10.0761 13.2693 6.38205 0.67441 1.13211 1.93305
148 1 11.5914 14.9003 8.19884 -0.700493 0.200602 1.54668
149 1 13.3081 13.2293 6.69288 0.454901 0.991892 0.330746
150 1 14.8523 14.886 8.25128 0.117471 -1.34092 -0.911111
151 1 16.3771 0.0614412 9.76275 -0.541048 -1.20166 -0.923882
152 1 1.68959 1.67953 11.3416 -1.42973 0.144858 -0.0430735
153 1 3.34661 0.108132 9.8608 0.87782 2.86098 0.332864
154 1 5.08327 1.68433 11.5008 -1.25266 -1.38704 0.927578
155 1 6.73877 16.5127 9.92736 1.02769 2.368 -2.17648
156 1 8.41157 1.49595 11.6166 -1.64541 -1.0647 0.115902
157 1 9.90802 16.4511 9.97127 -0.0628263 -0.617647 0.479993
158 1 11.5977 1.46969 11.722 2.30791 -0.554677 2.16086
159 1 13.1151 0.0221264 9.89713 0.387062 -0.606514 -1.07107
160 1 14.792 1.74905 11.4882 -1.10759 -0.874774 0.471321
161 1 16.4763 3.38908 9.90442 1.84308 1.34605 2.50442
162 1 1.96859 4.90779 11.6115 -0.818966 0.217036 1.34642
163 1 3.52733 3.19681 9.92806 1.43205 -0.398651 -0.340377
164 1 5.28618 4.9807 11.5267 -0.500026 -0.47099 0.679299
165 1 6.87738 3.30498 10.065 -0.12781 -0.105454 2.45121
166 1 8.41504 5.05765 11.4481 -0.249689 0.746997 -0.784781
167 1 10.0985 3.28107 10.0828 2.01086 -0.000626323 0.368643
168 1 11.7319 5.05036 11.6752 0.335249 1.58212 2.73606
169 1 13.1308 3.29363 9.96132 0.938505 -1.42868 2.69783
170 1 15.0102 4.89911 11.6143 1.00584 0.343841 -0.329105
171 1 0.121857 6.40715 10.0498 1.42281 -0.265167 -0.191763
172 1 1.69845 8.17738 11.5719 1.18598 0.306946 0.240177
173 1 3.43625 6.47013 9.92278 0.42085 -0.555639 0.461962
174 1 5.0138 8.35401 11.5807 1.55649 0.322426 -0.771466
175 1 6.8053 6.58962 9.87002 -1.04364 -0.473849 -0.777886
176 1 8.32412 8.3976 11.3774 0.645439 0.256548 -1.169
177 1 9.98584 6.7114 9.8788 -0.658435 1.22532 -0.0699153
178 1 11.6211 8.21527 11.4901 -1.8675 0.260744 -0.343922
179 1 13.1924 6.54359 9.89883 -1.54145 -0.111563 0.185576
180 1 14.9259 8.12035 11.5357 -0.803589 1.46408 -0.704353
181 1 16.4606 9.87466 10.1217 -0.32562 1.22568 -3.49284
182 1 1.56879 11.6972 11.6982 -0.535785 1.07628 0.120898
183 1 3.25534 9.90883 10.0638 0.529692 -0.33451 -0.485542
184 1 5.01358 11.6511 11.6788 -0.524748 -0.931203 0.883072
185 1 6.5303 10.061 9.73051 0.65018 -1.39953 -0.812357
186 1 8.2486 11.5957 11.3723 0.967773 -0.205734 1.50774
187 1 9.8383 9.94705 9.77049 0.435227 -1.09136 0.824317
188 1 11.5573 11.6221 11.4908 -0.651138 0.474333 0.934744
189 1 13.2641 9.91378 9.95542 0.227789 -0.580925 1.78062
190 1 14.7414 11.5954 11.6174 1.27413 0.209576 -0.0885896
191 1 16.4217 13.2856 10.0098 0.898841 -1.77603 0.83526
192 1 1.62132 15.0095 11.4334 1.4538 0.697639 2.00001
193 1 3.23724 13.2358 10.0519 1.34566 0.81073 1.15864
194 1 5.02834 14.9366 11.5245 0.745002 0.520712 -0.376329
195 1 6.62287 13.2933 9.80309 -0.742051 1.05784 -0.121715
196 1 8.3145 14.7967 11.519 0.55705 -1.07857 -1.46779
197 1 10.0392 13.2179 9.91187 1.32142 0.662203 1.15139
198 1 11.4667 15.0231 11.6744 0.852253 0.379555 0.466822
199 1 13.1996 13.3562 9.92684 -1.99573 -1.05099 0.85854
200 1 14.704 15.0538 11.6533 0.667915 -0.707427 -2.06498
201 1 16.5046 0.138442 13.1042 0.0540894 -1.66917 1.39212
202 1 1.75907 1.68546 14.8241 0.102004 -0.397541 0.705319
203 1 3.33992 0.0867408 13.1067 -0.421212 1.80517 0.0981165
204 1 4.98194 1.6438 14.8879 0.208738 2.42555 0.0101151
205 1 6.69502 16.4926 13.2257 -0.297956 -0.762556 0.521444
206 1 8.07777 1.61638 15.0227 0.1764 1.00676 -1.74413
207 1 9.85617 16.4016 13.5751 -1.59721 0.932433 0.0566412
208 1 11.5535 1.56566 15.0974 -0.23871 0.269712 1.72135
209 1 13.0618 16.4802 13.4023 -0.110554 -0.830809 -0.193218
210 1 14.802 1.63348 14.9418 -0.800981 2.05632 1.15013
211 1 0.0939409 3.20834 13.2062 0.739952 -0.98195 0.288273
212 1 1.7895 4.87325 14.7928 0.360962 -0.199139 1.10172
213 1 3.55592 3.272 13.1935 -0.411811 -0.694222 -0.414518
214 1 4.94932 4.92793 14.7914 -0.103713 -0.638255 1.51741
215 1 6.68651 3.28923 13.2856 1.02561 0.159302 -0.132808
216 1 8.38049 4.9703 14.6924 1.29041 -1.15438 -0.744608
217 1 9.98434 3.35083 13.2585 1.06279 -0.630536 0.914826
218 1 11.6533 4.83274 14.9155 -0.233903 -1.05031 0.182039
219 1 13.1955 3.24077 13.2435 1.18618 0.477046 0.575848
220 1 14.9378 4.92935 14.7999 -1.47821 1.13348 -1.04622
221 1 0.0202113 6.4689 13.2137 0.746511 0.634694 0.401064
222 1 1.53938 8.2011 14.7315 -0.439264 -1.03511 1.45112
223 1 3.47144 6.54988 13.1272 1.02433 0.132233 0.205929
224 1 4.96993 8.28726 14.7975 0.0102617 -1.64427 1.21819
225 1 6.80233 6.67858 13.1808 -0.92044 2.00487 0.28046
226 1 8.29252 8.30501 14.7878 1.09239 0.447199 -1.37444
227 1 9.9234 6.68182 13.0929 -1.38727 1.23569 -1.18448
228 1 11.4998 8.17373 14.9164 2.59757 -0.0286403 -0.305817
229 1 13.2766 6.67036 13.232 -0.616036 -0.412046 1.71196
230 1 14.8151 8.16417 14.9005 -3.13435 0.299099 1.06317
231 1 16.3749 9.80017 13.2324 -0.117779 -0.396835 2.33027
232 1 1.55518 11.6355 14.8184 -0.562013 -0.765391 0.343079
233 1 3.28224 9.96788 13.1957 -2.38982 1.73932 0.767718
234 1 4.79408 11.7346 14.8503 0.134053 -1.23301 -1.39671
235 1 6.61978 9.96272 13.292 1.60764 -1.53956 1.53331
236 1 8.3333 11.6518 14.8802 0.974054 1.49114 2.01094
237 1 9.87418 9.96053 13.1537 -0.409218 0.477012 -2.67812
238 1 11.6497 11.5259 14.8835 2.16505 -2.58668 -0.459487
239 1 13.2594 9.82507 13.2343 2.53677 -1.84625 0.819547
240 1 14.9107 11.5553 14.9531 -0.877121 1.03697 1.87921
241 1 16.338 13.3809 13.2411 -0.869333 1.17666 0.389705
242 1 1.59994 14.9454 14.7959 0.0155603 1.37791 1.27507
243 1 3.2699 13.4514 13.193 -0.825579 0.167477 1.47237
244 1 5.00292 14.9717 14.9648 -1.45136 -1.15191 1.36127
245 1 6.6088 13.2897 13.1931 -0.947098 0.217401 0.211677
246 1 8.17787 14.8188 15.0708 -0.146625 0.699083 0.77869
247 1 9.94461 13.2354 13.3492 -0.386005 0.63037 -1.58804
248 1 11.4227 14.8556 15.0894 1.20791 2.27306 -0.119733
249 1 13.0952 13.3184 13.3311 0.290771 0.285192 0.855646
250 1 14.8011 14.9418 14.8892 0.499995 0.631849 2.58533
