ITEM: TIMESTEP
1000
ITEM: NUMBER OF ATOMS
250
ITEM: BOX BOUNDS pp pp pp
0.0000000000000000e+00 1.6520000000000000e+01
0.0000000000000000e+00 1.6520000000000000e+01
0.0000000000000000e+00 1.6520000000000000e+01
ITEM: ATOMS id type x y z vx vy vz
1 1 0.0303063 16.3683 0.071219 0.600981 1.30285 -1.26519
2 1 1.49735 1.66061 1.70446 0.19455 0.10694 -2.22574
3 1 3.17194 0.00124135 0.0169973 -2.39871 1.02757 -0.631087
4 1 4.90238 1.6903 1.56889 0.719514 -0.901824 -1.13013
5 1 6.63655 0.092141 16.4902 -0.196464 0.0488991 0.12222
6 1 8.21591 1.65828 1.73793 0.646832 -1.31607 -0.337793
7 1 10.0426 0.0605654 16.482 -1.62758 -0.403372 0.906068
8 1 11.5184 1.60647 1.66768 0.423101 1.20427 -0.761265
9 1 13.1951 0.0421516 0.0396409 0.242316 0.572416 0.207659
10 1 14.8069 1.537 1.53616 -0.483559 -1.68689 1.36521
11 1 0.0368592 3.37783 16.4567 -1.62805 -0.0866163 -0.4924
12 1 1.56931 4.97805 1.57496 1.40311 0.301083 0.0485181
13 1 3.15532 3.14614 0.0191646 1.64961 -0.290194 0.401361
14 1 4.99629 4.79679 1.60108 0.143165 -2.08391 1.29105
15 1 6.51985 3.18279 0.00627565 -0.0269533 0.754389 0.326185
16 1 8.19423 4.92533 1.81261 2.25195 -0.0593271 -0.561294
17 1 9.92635 3.20108 0.0192635 -0.547031 -0.680659 -1.29872
18 1 11.5534 4.99716 1.6842 1.31818 2.33537 1.24047
19 1 13.3032 3.37012 0.14351 0.533968 0.500592 -1.80193
20 1 14.8687 4.95858 1.74737 0.691088 -0.497328 0.954919
21 1 16.4685 6.71045 0.0746179 1.89837 -1.43101 -0.156338
22 1 1.45838 8.29851 1.6985 -0.432326 -0.67462 -0.551491
23 1 3.24606 6.58116 0.133121 1.286 0.413858 0.220668
24 1 5.08248 8.28706 1.5404 -1.76056 -0.30997 0.0818702
25 1 6.63448 6.55775 16.3649 -0.288641 0.787025 1.60983
26 1 8.29353 8.13137 1.52243 -1.1385 -0.0637993 2.57103
27 1 9.88518 6.59307 16.3571 0.677235 -0.408612 1.92478
28 1 11.5166 8.17646 1.6275 1.03527 1.29782 1.76207
29 1 13.2068 6.61364 0.0563809 -1.18481 -0.0757444 -0.598122
30 1 14.7314 8.29514 1.5286 -0.145916 1.05934 1.08523
31 1 0.0485601 9.96563 16.458 -1.5334 0.83058 0.058225
32 1 1.49684 11.5899 1.78243 3.35505 1.63863 0.411872
33 1 3.18722 9.9507 0.170348 0.242362 0.54955 -0.346039
34 1 4.85571 11.5195 1.59312 -0.64049 2.30028 1.44691
35 1 6.62697 9.98545 16.3611 -0.366007 0.396424 1.77689
36 1 8.22729 11.4317 1.64905 1.46488 -0.0951286 -1.11385
37 1 9.8596 9.92132 16.4675 -1.2748 0.319176 0.963869
38 1 11.4781 11.4941 1.66077 1.53998 0.731004 -2.06027
39 1 13.1154 10.0237 16.4157 0.18801 1.33549 0.120189
40 1 14.8231 11.6178 1.75842 -0.608982 -1.20439 1.23359
41 1 0.0484261 13.131 16.5109 1.31589 0.460635 -0.099869
42 1 1.68349 14.7563 1.70084 0.6471 0.864345 0.0787331
43 1 3.38928 13.1411 0.0942126 0.677662 0.258774 1.19008
44 1 5.07632 14.7993 1.5016 1.22363 1.41726 0.914057
45 1 6.55385 13.0945 16.4606 -1.0142 -1.6853 -0.10277
46 1 8.33064 14.8007 1.6474 1.23828 2.26388 -0.0576798
47 1 9.93077 13.1313 0.0726174 -0.877465 0.653667 -1.75502
48 1 11.4278 14.9089 1.57566 0.60268 -0.691074 0.0430066
49 1 13.1931 13.1586 0.0867429 0.764663 -0.07714 -2.9447
50 1 14.8274 14.8709 1.72707 -0.364558 -0.358841 0.404003
51 1 0.0128792 0.0107978 3.26099 -0.559888 -1.89684 -0.78765
52 1 1.64406 1.71517 4.9495 -1.67554 -1.79572 -0.916957
53 1 3.38436 16.5117 3.34592 0.598573 -0.613284 0.280631
54 1 4.88008 1.6956 4.94364 0.102638 -0.531885 1.22375
55 1 6.5978 16.457 3.2601 -0.852078 1.26396 -0.989146
56 1 8.34373 1.6312 5.11884 -0.900094 0.627374 1.60681
57 1 9.83163 16.4651 3.30883 -2.7685 2.64745 -0.0726398
58 1 11.6006 1.56498 5.07052 1.23355 0.450379 -0.102727
59 1 13.2447 0.0469326 3.26574 0.170413 -0.890354 0.907787
60 1 14.7978 1.66384 5.09676 -1.19718 -0.00227518 0.756863
61 1 16.4187 3.27301 3.31828 -0.0890523 0.23779 0.0894772
62 1 1.64764 4.89233 4.91686 0.947974 2.39182 0.500951
63 1 3.2308 3.23028 3.26751 2.77527 -1.04351 -0.218243
64 1 4.95081 4.89818 4.89732 1.40368 0.457477 -0.0187756
65 1 6.61034 3.14338 3.3578 -0.135465 0.793361 -0.0697024
66 1 8.29686 4.97185 4.97825 -1.0399 -0.716989 0.847279
67 1 9.93746 3.07924 3.39199 1.87115 0.880669 -0.863919
68 1 11.5069 4.84342 4.97079 1.55622 1.11459 -0.279487
69 1 13.1704 3.24004 3.29862 1.47683 1.45819 -1.83383
70 1 14.882 4.97097 4.92062 -0.200191 1.46311 -0.152328
71 1 16.4445 6.60722 3.36527 3.78908 -0.136416 -0.0378898
72 1 1.61405 8.17928 4.81643 -2.61097 -1.63761 0.589247
73 1 3.25043 6.49266 3.25322 0.257522 0.909355 -0.556077
74 1 4.92964 8.23435 4.87187 -0.19619 -0.27685 1.35202
75 1 6.54899 6.60039 3.29571 0.663779 -0.938838 0.7009
76 1 8.36414 8.13707 4.91264 -0.359815 -0.329684 2.18886
77 1 9.85962 6.52933 3.2187 1.22849 0.851572 -0.668856
78 1 11.5278 8.31804 4.94363 0.305488 0.313521 1.50686
79 1 13.0921 6.61783 3.27811 0.343037 0.688727 1.46567
80 1 14.6559 8.21852 4.99599 0.513835 0.319114 0.749943
81 1 16.38 9.98255 3.32963 -1.90825 0.892052 -0.988945
82 1 1.61091 11.5633 4.92655 -0.3025 1.32214 0.889791
83 1 3.38904 9.88475 3.29244 -0.756793 1.26245 1.14606
84 1 4.84542 11.4607 4.80826 0.58577 1.18897 2.26013
85 1 6.6419 9.69747 3.21111 1.27798 -1.61651 1.67753
86 1 8.18344 11.5082 4.85271 0.629909 -0.156074 2.0066
87 1 9.84772 9.80603 3.26628 0.488106 -0.950904 0.786291
88 1 11.5416 11.4729 5.01114 1.66495 0.795148 0.68486
89 1 13.1885 9.84741 3.27805 -0.450916 -3.43268 0.916561
90 1 14.84 11.619 4.96734 -1.00129 0.509049 0.544184
91 1 16.4651 13.2898 3.30156 0.622941 0.145637 -2.60154
92 1 1.75764 14.8302 4.90991 -1.15079 0.114743 -0.36119
93 1 3.39162 13.1195 3.2502 -0.767975 0.726662 1.05727
94 1 4.99595 14.858 4.96955 2.679 0.0400832 0.13238
95 1 6.65779 13.2865 3.30092 2.59611 1.97817 -1.24455
96 1 8.14053 14.9919 5.008 0.0507004 0.376032 1.18151
97 1 9.94628 13.2956 3.47125 -0.133222 -0.0746827 0.552263
98 1 11.4727 14.9918 5.12089 -1.28138 -1.10924 -0.247276
99 1 13.1045 13.3677 3.43376 1.94139 -1.16183 0.777623
100 1 14.9128 14.963 4.95648 -0.159335 0.611794 -1.6961
101 1 0.0376194 16.4649 6.63071 0.223799 -0.965614 -2.06074
102 1 1.56504 1.60568 8.30725 -0.761753 -3.01414 -1.1097
103 1 3.38313 0.0877874 6.64044 0.0783582 1.33196 -0.215548
104 1 4.96182 1.7147 8.10239 0.381661 0.41034 0.307833
105 1 6.66965 16.5048 6.62492 -1.00501 0.869598 0.40097
106 1 8.22282 1.70358 8.27884 0.186255 1.87372 -0.677196
107 1 9.85857 0.0377266 6.7699 0.0843927 -0.548943 2.01741
108 1 11.6745 1.58096 8.3831 -0.648393 1.33036 -0.712331
109 1 13.2335 0.0941385 6.76653 -1.82483 0.25649 0.178216
110 1 14.9805 1.60813 8.35206 -0.185965 1.1274 1.10697
111 1 16.4963 3.23975 6.58921 -0.286716 -0.856667 -0.686771
112 1 1.6376 5.07042 8.16795 -0.181358 1.95378 1.09943
113 1 3.26491 3.20738 6.56329 0.824907 1.37615 0.458008
114 1 4.93537 5.00648 8.19243 0.23393 1.10585 1.52086
115 1 6.59106 3.31651 6.66843 -0.480671 -1.18652 0.948127
116 1 8.27497 5.15804 8.29459 -0.441642 -1.5748 -0.227469
117 1 9.9718 3.39426 6.69645 -0.47922 -0.361709 0.799715
118 1 11.6 5.00649 8.28562 2.01764 -2.32116 -0.481129
119 1 13.1909 3.39025 6.77125 -0.0302447 0.212201 -0.989093
120 1 14.9406 4.88863 8.22605 0.701621 -0.467794 -0.489678
121 1 16.4802 6.5854 6.44992 1.6766 0.796954 -0.0559256
122 1 1.62375 8.20062 8.09885 -1.00538 0.572528 -1.97082
123 1 3.22655 6.59353 6.52604 -0.944392 1.12356 0.0824645
124 1 5.0289 8.37449 8.1084 -0.384757 -2.80377 1.53521
125 1 6.60373 6.51773 6.52785 0.0114322 0.0623696 0.83526
126 1 8.2543 8.26706 8.26402 0.663778 -0.858384 0.50028
127 1 9.93956 6.55731 6.56256 0.256678 -1.61448 2.54311
128 1 11.6183 8.398 8.15742 -1.31907 -0.280346 0.439603
129 1 13.2415 6.53881 6.67488 1.06421 1.90935 -0.709826
130 1 14.9156 8.32963 8.13842 0.484613 -1.06305 -1.01694
131 1 0.032468 9.85275 6.468 -1.08713 -0.0911544 -1.00311
132 1 1.62724 11.6425 8.13312 1.32754 1.39874 -0.943609
133 1 3.31603 9.92713 6.50028 -0.176887 -0.631652 0.632395
134 1 4.99692 11.6675 8.22811 0.855972 0.426212 1.89052
135 1 6.64696 9.93 6.50529 -1.29988 1.57114 1.38693
136 1 8.24632 11.6613 8.46004 0.18484 -0.822584 0.926945
137 1 9.75375 9.8117 6.47088 0.135312 1.75098 0.888002
138 1 11.602 11.6158 8.24008 -1.03389 -1.74683 0.290662
139 1 13.2556 10.0317 6.7008 -1.79185 0.679582 -0.26197
140 1 14.9638 11.6027 8.30024 -1.83956 -1.15302 1.75651
141 1 0.0773271 13.3079 6.52696 0.80231 0.794163 -0.793067
142 1 1.68063 14.9185 8.35334 0.490717 -1.49373 0.68206
143 1 3.21297 13.2059 6.43398 1.75249 -0.549936 -0.325802
144 1 4.91498 14.9288 8.34153 0.189712 -1.32564 -0.221865
145 1 6.53581 13.2491 6.54452 0.179108 0.291639 -0.439903
146 1 8.27025 14.7943 8.41584 -0.576152 0.324721 -1.93654
147 1 9.79163 13.1967 6.54322 1.27098 0.0502769 0.177987
148 1 11.5629 14.9575 8.43156 -1.34303 0.286135 -1.20885
149 1 13.0947 13.1466 6.55065 -0.40024 -0.610652 0.392263
150 1 14.9575 14.82 8.24557 0.0966158 -0.919899 -1.09626
151 1 0.0221977 16.5045 10.2017 0.651693 -1.90046 -1.41908
152 1 1.69065 1.75915 11.4959 -2.39254 -3.58495 -1.10919
153 1 3.28047 0.0509578 9.99719 -0.205864 -1.2134 -0.0857337
154 1 5.12278 1.68861 11.597 -0.716671 -0.749322 -0.908601
155 1 6.60828 16.5143 10.0018 -0.634891 1.02477 -3.69231
156 1 8.41388 1.83205 11.5664 -2.14383 -1.15123 -1.46356
157 1 9.80897 0.00419456 9.99265 0.841818 0.722639 -0.87881
158 1 11.6576 1.77916 11.6429 -1.24791 -0.653302 -0.817625
159 1 13.2404 16.4317 9.94015 0.409505 -0.349029 0.19577
160 1 15.047 1.64251 11.6666 0.746919 -2.01018 -0.441127
161 1 0.0660799 3.41748 9.90661 -0.748546 -2.12481 0.094171
162 1 1.63535 5.07529 11.6436 1.73733 -1.27191 0.226417
163 1 3.30171 3.34927 9.84172 -1.37108 -0.229408 1.15609
164 1 4.90126 5.01822 11.4447 -0.529844 0.300786 1.1129
165 1 6.60207 3.31922 9.88668 -0.538246 0.616553 1.04897
166 1 8.28526 4.8791 11.4996 0.241238 0.641534 -0.400894
167 1 10.0341 3.34702 9.90809 -3.46995 0.994887 -0.611188
168 1 11.658 5.06747 11.5857 1.29789 2.01233 1.53191
169 1 13.3046 3.33864 10.0404 0.105022 1.29976 -1.86128
170 1 14.955 5.06511 11.6511 -1.41788 0.581769 0.0898619
171 1 16.4443 6.54783 9.85322 -0.564905 0.87278 -1.67345
172 1 1.64449 8.30568 11.6676 1.04665 -0.0128545 0.186487
173 1 3.3965 6.68347 9.93209 -0.201126 1.96611 0.207162
174 1 4.92713 8.29328 11.5302 -0.173067 -0.811306 -0.612071
175 1 6.52564 6.57279 9.79825 0.572393 -0.348015 -1.33221
176 1 8.33426 8.18944 11.4179 -2.39402 -0.0309786 2.10375
177 1 9.91683 6.63871 9.97922 -1.57504 -1.22361 1.09737
178 1 11.5922 8.29589 11.4233 -0.307345 0.339333 0.0102577
179 1 13.3143 6.7714 9.77012 -0.0182439 -0.475781 1.52101
180 1 14.8686 8.14152 11.5663 0.549082 1.35421 -2.07006
181 1 0.0109947 9.85857 9.95235 -1.62673 0.134866 -1.3592
182 1 1.75355 11.4967 11.4486 0.110175 0.968551 1.65391
183 1 3.28408 10.0156 9.65187 -0.504674 -2.6765 -0.0954735
184 1 4.92656 11.5471 11.4178 0.767798 1.14712 0.51787
185 1 6.68029 9.89951 9.93706 0.0999436 0.325309 0.501891
186 1 8.28776 11.6346 11.4691 -0.873174 -0.312359 2.0082
187 1 9.79102 10.0724 9.84388 0.0878413 -0.422351 1.56245
188 1 11.5461 11.5633 11.4767 0.819946 -0.67962 0.0209105
189 1 13.0664 9.95171 9.90106 1.00271 2.2066 1.43797
190 1 14.9439 11.4592 11.5814 -1.29527 -0.578821 -1.3626
191 1 0.0578846 13.2907 9.97676 -0.601554 0.645667 -2.70514
192 1 1.74723 15.0343 11.6496 0.158483 0.0336512 0.173101
193 1 3.31682 13.3331 9.90731 1.99984 -0.19184 -1.66466
194 1 4.91588 15.0428 11.6756 -0.261053 -0.306151 -0.153913
195 1 6.49613 13.216 10.0351 0.488263 -0.809088 -0.885454
196 1 8.30651 14.9185 11.6777 -0.436693 -3.04947 -0.638106
197 1 9.94181 13.17 9.93506 1.21262 -1.97594 1.26579
198 1 11.6423 14.8542 11.5934 1.51362 -0.000816245 -0.299885
199 1 13.2734 13.1316 9.94294 2.5156 -1.01718 0.57103
200 1 14.7934 14.7116 11.6244 0.46716 -0.915069 -2.47678
201 1 0.0815972 0.0310806 13.3293 -0.644844 -1.29713 -0.436488
202 1 1.60814 1.69639 14.7622 -1.61323 -0.176757 -0.740801
203 1 3.28403 0.0117273 13.3121 1.12404 0.601609 0.0254202
204 1 4.82546 1.68336 14.8677 -0.456037 0.125102 0.763208
205 1 6.62214 0.0827792 13.3128 -1.17133 0.381474 -0.479858
206 1 8.30839 1.70764 15.0978 -1.02033 -0.399285 -2.73295
207 1 9.85769 0.0984479 13.2502 1.41704 -2.19448 -2.2426
208 1 11.635 1.6608 14.8482 -1.01375 1.57829 -2.4382
209 1 13.3088 16.4916 13.2492 -1.06652 -0.38291 -0.967847
210 1 14.9369 1.62899 15.0064 1.00278 1.14373 0.838908
211 1 0.00399457 3.41325 13.3023 0.168016 -0.180649 -0.774063
212 1 1.64606 4.87229 14.9079 -0.321006 0.66002 0.150652
213 1 3.31668 3.34498 13.1434 -0.648152 -2.39915 0.879708
214 1 4.84508 4.98706 14.8152 0.266924 -0.20848 0.526833
215 1 6.59739 3.3386 13.1503 -1.29269 -0.0596718 -0.594047
216 1 8.17283 4.90611 14.8867 2.40943 0.407977 -0.103654
217 1 10.0531 3.28606 13.2984 -2.37724 0.587275 -1.46196
218 1 11.6486 4.9536 14.8352 1.11661 0.135319 -0.620307
219 1 13.2905 3.40526 13.243 -2.92542 0.77277 -0.475528
220 1 14.9839 5.0024 14.9276 -0.974225 -0.362896 0.306021
221 1 0.0701658 6.70927 13.2432 2.14432 -1.13946 -0.0602544
222 1 1.67146 8.31167 14.9086 -0.0355936 0.369206 0.238222
223 1 3.28265 6.62656 13.2161 -0.359627 -0.141257 0.948112
224 1 4.7881 8.25701 14.9075 -1.40727 1.07213 -0.223873
225 1 6.58725 6.49548 13.237 -0.325439 0.50152 0.258873
226 1 8.30745 8.14622 14.8501 -2.27612 0.349439 0.270777
227 1 9.87886 6.55314 13.2917 0.101994 0.337899 0.881891
228 1 11.7156 8.29205 14.7514 -0.784136 -0.210682 1.4058
229 1 13.1729 6.6651 13.1795 -0.899514 -0.602203 -0.797803
230 1 14.8782 8.24293 14.9907 -2.42313 3.07251 -0.524699
231 1 16.4882 9.95976 13.2859 -1.59136 -1.13069 -0.761109
232 1 1.81638 11.6538 14.9694 0.0130745 -0.848348 1.12745
233 1 3.49181 9.90719 13.1468 -1.05372 -1.17672 2.4287
234 1 5.07419 11.5711 14.7739 0.830253 -1.246 2.2586
235 1 6.68606 9.75856 13.1328 -0.953096 0.462315 -0.970784
236 1 8.33239 11.5812 14.6901 -0.118959 1.36621 -1.07703
237 1 9.81167 9.8015 13.1308 0.0304699 -0.629253 -1.3347
238 1 11.4086 11.4826 14.8434 1.31704 -0.404486 2.26011
239 1 13.2591 9.89572 13.1696 -0.208237 0.709213 1.43239
240 1 14.8843 11.5661 14.8277 1.89734 1.37109 -0.295681
241 1 0.0920012 13.1194 13.1486 -0.0526034 0.0853595 -2.47224
242 1 1.65708 14.7719 14.8645 0.433803 -2.31845 -1.40038
243 1 3.34542 13.2164 13.1301 2.6492 1.0388 0.389444
244 1 4.93148 14.8531 14.8728 -0.438629 -0.152293 -0.642511
245 1 6.6976 13.2391 13.1948 1.58455 -0.526429 -0.866972
246 1 8.32183 14.8769 14.8716 -0.703612 0.642193 -1.50967
247 1 9.95913 13.2088 13.1375 -0.645565 -0.564125 -1.58175
248 1 11.6565 14.739 14.83 -0.254373 0.594514 0.641746
249 1 13.2161 13.0831 13.2387 -0.265599 0.38141 -0.48626
250 1 14.8918 14.812 14.9452 0.260134 -1.90226 -1.54042
