ITEM: TIMESTEP
410
ITEM: NUMBER OF ATOMS
250
ITEM: BOX BOUNDS pp pp pp
0.0000000000000000e+00 1.6520000000000000e+01
0.0000000000000000e+00 1.6520000000000000e+01
0.0000000000000000e+00 1.6520000000000000e+01
ITEM: ATOMS id type x y z vx vy vz
1 1 16.5016 16.4923 0.0429567 0.348297 1.32707 -0.459416
2 1 1.6226 1.84518 1.76269 0.998927 -0.369025 -1.21791
3 1 3.27673 0.0695264 16.4304 -0.979784 -1.29969 -0.642078
4 1 4.84382 1.65599 1.69774 -2.43902 -0.416816 1.07366
5 1 6.68267 0.0991239 16.5023 -1.05177 1.30046 1.101
6 1 8.28274 1.7048 1.65328 2.73354 0.858119 -0.106753
7 1 10.0267 16.5062 16.447 0.597994 1.2998 -0.249116
8 1 11.5703 1.653 1.50868 -1.06649 1.24872 -1.21324
9 1 13.3007 0.0248551 16.4215 0.938899 -1.61236 -0.935245
10 1 14.9142 1.59014 1.62588 -0.548679 -2.03293 -1.77975
11 1 16.4663 3.39821 0.176411 0.565294 -0.277933 -0.83841
12 1 1.63245 4.99628 1.60131 -1.5633 0.400566 0.215372
13 1 3.23837 3.28626 16.4038 1.71182 0.077749 -0.399088
14 1 4.89373 4.7975 1.63936 -0.290568 -0.932597 -1.22677
15 1 6.64441 3.33339 0.0608082 -0.0195356 0.425249 1.17528
16 1 8.24448 5.04553 1.72879 -1.06112 0.174169 -1.34141
17 1 9.97496 3.32196 16.3998 0.417342 0.626144 -1.43249
18 1 11.4719 5.0288 1.58632 0.712675 -0.569991 1.43661
19 1 13.3137 3.27563 16.4866 1.6673 0.160183 -1.84755
20 1 14.7715 4.89226 1.69627 -1.64727 1.20246 0.422281
21 1 16.3999 6.59933 0.066724 0.307864 -0.157702 0.552087
22 1 1.57128 8.23642 1.74827 -0.735557 0.159665 1.15342
23 1 3.26031 6.5625 16.5136 -1.58952 -0.0234442 1.87994
24 1 5.02744 8.24294 1.70912 -0.234075 -0.312868 -0.0441403
25 1 6.65268 6.47492 0.0609473 -0.521541 -0.261316 0.364523
26 1 8.32101 8.20347 1.69905 -1.74205 -0.680464 0.787993
27 1 9.94666 6.70184 16.4863 0.494362 0.230788 -1.64192
28 1 11.5908 8.16522 1.77546 2.19085 -0.654947 0.797776
29 1 13.2109 6.55869 0.0472587 0.574726 0.900808 -0.918428
30 1 14.8218 8.2356 1.61055 -1.80654 0.272539 -0.0657476
31 1 0.0322732 9.97313 0.0912282 -0.00987402 1.90602 0.994768
32 1 1.68745 11.5651 1.55518 1.6726 1.97256 -0.0464756
33 1 3.34405 9.92891 0.0742579 0.934632 2.10692 1.02279
34 1 4.97471 11.526 1.7456 1.10963 -0.90565 0.790957
35 1 6.75824 9.83278 16.4936 1.02738 -0.438807 0.528096
36 1 8.337 11.5494 1.59596 1.99717 -1.18845 -0.197675
37 1 9.89795 9.79587 0.101219 -0.876741 -1.37531 0.881391
38 1 11.5874 11.5432 1.57642 -0.248563 1.21597 -1.08576
39 1 13.2366 9.88505 16.4276 -0.0797196 0.953904 1.57186
40 1 14.769 11.596 1.48227 -0.7804 0.300232 0.284447
41 1 16.4867 13.2062 0.0295163 -1.10961 0.591932 -0.847234
42 1 1.6549 14.9199 1.43486 -0.657049 0.594976 -2.89248
43 1 3.43794 13.2811 0.0287754 1.33195 0.440662 -1.68107
44 1 4.98095 14.9996 1.55272 0.344418 0.720997 0.966053
45 1 6.76689 13.1682 16.4982 2.27887 -0.135915 1.94149
46 1 8.28977 14.9236 1.54881 -1.146 1.72344 0.0750463
47 1 9.80568 13.3492 16.4606 -0.371991 2.02378 0.943652
48 1 11.4771 14.9367 1.6643 0.633302 -0.976937 -0.585132
49 1 13.2416 13.3 16.4663 -0.684469 2.86615 -1.0222
50 1 14.7416 14.8814 1.59395 0.760983 1.24161 -1.72996
51 1 0.114437 16.4508 3.05951 1.6612 -0.00524689 -1.38716
52 1 1.59887 1.68704 4.80731 -0.471301 -1.84494 -1.97928
53 1 3.33405 16.4921 3.17862 0.0028721 0.767912 -0.283024
54 1 4.9955 1.68305 4.83545 1.63484 -0.701093 -1.3249
55 1 6.56617 0.116371 3.32204 -1.12971 0.621238 -0.318842
56 1 8.33024 1.69402 5.09169 -0.439757 0.970417 2.13801
57 1 9.8821 0.211436 3.31492 0.136891 2.9248 -0.119867
58 1 11.7103 1.56973 4.90897 -1.11549 2.87776 -0.298336
59 1 13.221 0.00337749 3.25377 1.66829 1.73269 -0.413298
60 1 14.9627 1.57291 4.86808 -1.2561 0.144831 -2.45339
61 1 16.4569 3.29056 3.33344 -0.459899 1.79374 0.577542
62 1 1.58053 4.95376 4.87554 -2.00261 0.692064 0.976059
63 1 3.21521 3.29305 3.3586 -1.30391 0.413006 0.832136
64 1 4.92849 4.91182 4.90315 0.161961 1.52468 -0.516214
65 1 6.64054 3.25305 3.33079 -0.841119 -0.280821 -1.42534
66 1 8.18151 4.86835 4.93715 1.78142 0.872765 1.3509
67 1 9.91237 3.31031 3.24467 1.04476 -0.222145 0.529146
68 1 11.4983 4.87732 4.91794 -0.592345 0.0581518 -1.68707
69 1 13.1717 3.27111 3.22855 -1.00859 0.863946 -0.401732
70 1 14.7987 4.92394 4.83964 -0.749677 -1.45417 0.530827
71 1 16.4471 6.59806 3.30592 -0.326778 -1.0861 -1.45589
72 1 1.53145 8.33021 4.82581 -0.545341 -1.56569 -1.87783
73 1 3.27568 6.57168 3.24819 1.99712 -0.919012 0.551245
74 1 5.05348 8.22769 4.84374 -0.172597 -0.423623 0.537852
75 1 6.53442 6.44098 3.36382 -0.225192 -3.44484 0.957786
76 1 8.31275 8.24644 4.99184 -1.98667 -0.640871 0.80084
77 1 9.8897 6.64075 3.34703 0.622467 0.139004 1.68937
78 1 11.5381 8.28483 5.07476 0.456129 0.271021 0.850692
79 1 13.1315 6.65286 3.40671 -1.57416 1.4265 -1.78738
80 1 14.8607 8.24011 4.96392 0.596238 -1.00072 -0.686829
81 1 16.4184 10.0544 3.25971 -0.921221 -0.327716 2.26654
82 1 1.65565 11.5469 4.92642 -1.47176 -0.32099 0.835587
83 1 3.33036 10.0331 3.30001 1.64304 2.57196 -0.199378
84 1 5.0642 11.5455 4.8895 0.529578 -1.05057 -0.646687
85 1 6.75721 9.84037 3.35082 2.01208 -0.815828 -0.81482
86 1 8.30678 11.6314 4.96463 1.86268 1.24494 0.145342
87 1 9.97416 9.86037 3.39384 2.10751 -2.09404 0.0443494
88 1 11.5622 11.6125 4.81599 0.663572 1.19281 -0.685398
89 1 13.1932 9.84295 3.32781 1.10838 1.54832 -1.78889
90 1 14.9205 11.5222 4.90791 2.04653 1.23449 0.0786852
91 1 0.00913732 13.1683 3.24707 0.82409 0.566342 -0.155224
92 1 1.6994 14.8888 4.92836 -0.143773 1.9118 -0.71268
93 1 3.3245 13.2744 3.27125 0.474376 -0.103256 -0.187144
94 1 5.00101 14.848 4.88275 0.575793 -1.10144 -0.945629
95 1 6.80591 13.2618 3.22974 3.11761 0.562646 -1.54953
96 1 8.2856 14.9305 5.09603 2.39536 0.971162 -0.471938
97 1 9.85346 13.3876 3.20908 0.586575 -0.0636158 -1.03566
98 1 11.5823 14.8653 5.00821 0.165229 -1.22516 1.18388
99 1 13.2176 13.2454 3.25229 0.0223552 -0.630916 0.134893
100 1 14.8384 14.8802 4.93438 1.0077 0.472643 -1.36897
101 1 0.00942468 0.00297225 6.50491 0.286736 0.450783 -2.53453
102 1 1.71449 1.62811 8.19651 0.819688 -0.584748 -2.26681
103 1 3.40692 0.107538 6.47678 0.613803 0.524379 -2.10645
104 1 4.93221 1.78016 8.19955 1.25471 -0.48779 0.780848
105 1 6.5994 0.0634689 6.61927 -1.92728 0.614528 0.343226
106 1 8.26364 1.79905 8.28363 -0.632142 -0.318193 1.13885
107 1 10.0181 0.0594005 6.72744 1.65461 0.0200707 1.20534
108 1 11.6022 1.78966 8.39761 -0.453358 0.50472 -0.165802
109 1 13.2124 0.0245082 6.60474 1.18573 0.0394169 -1.34248
110 1 14.8362 1.78432 8.29694 -1.29965 1.1397 0.304611
111 1 16.4649 3.26048 6.56338 0.604328 0.260896 -1.36383
112 1 1.59017 4.91721 8.22893 -0.931347 -0.710033 -1.95986
113 1 3.25805 3.2968 6.47114 -1.62714 -2.30871 -0.337009
114 1 4.83564 4.8744 8.26933 -0.421782 1.87673 -1.32181
115 1 6.59283 3.30193 6.60993 1.42492 -0.349611 -0.513789
116 1 8.32446 4.92777 8.2822 0.432761 0.453849 1.2269
117 1 10.0696 3.35358 6.60771 -0.664857 -0.281339 -0.752965
118 1 11.5909 4.86496 8.35153 2.67671 0.740121 -1.11588
119 1 13.2459 3.2992 6.52219 -0.617022 -1.72476 -0.293794
120 1 14.8165 4.87253 8.20551 0.27471 0.897641 -0.419961
121 1 16.5182 6.59041 6.58718 -2.08058 0.840347 -0.800665
122 1 1.62344 8.28763 8.16576 -0.277685 1.58007 0.0701297
123 1 3.26274 6.46467 6.51095 1.91356 -0.32699 0.235635
124 1 4.98849 8.22402 8.1671 0.562401 -1.63598 0.699902
125 1 6.63033 6.46297 6.57407 -0.237232 0.43879 -0.256587
126 1 8.30564 8.14325 8.28014 1.84256 -1.45334 0.336815
127 1 9.91433 6.53681 6.68406 -0.887496 -0.758721 0.100779
128 1 11.5202 8.28534 8.30509 -1.11846 -0.732911 -0.399237
129 1 13.1644 6.57365 6.63332 -1.20075 0.18085 0.71647
130 1 14.8732 8.32619 8.26231 0.794321 -0.354733 0.447896
131 1 0.124691 10.0236 6.58426 1.28768 -1.0196 -0.759496
132 1 1.68731 11.5445 8.22494 0.226043 -1.63254 -0.107346
133 1 3.45768 9.88389 6.51902 -0.0777089 -1.91392 -2.13971
134 1 4.88697 11.6033 8.2445 -0.272346 1.15814 1.20371
135 1 6.65687 9.90593 6.63791 0.101407 -1.64155 0.737531
136 1 8.2397 11.6145 8.20815 -1.44111 0.415784 -0.994317
137 1 9.87908 9.86098 6.50807 -0.456815 0.534164 0.208348
138 1 11.4642 11.616 8.2159 -0.0671576 -0.00417493 -1.87675
139 1 13.2 10.0098 6.50652 0.645579 -0.135004 -0.606033
140 1 14.9061 11.4637 8.23104 2.82228 0.161672 -0.517218
141 1 0.0387827 13.2696 6.65076 0.779297 1.24062 0.160274
142 1 1.69669 14.7913 8.25025 -0.0204548 0.735611 0.78091
143 1 3.35697 13.19 6.56546 1.12486 -1.39274 2.09785
144 1 4.93096 14.8755 8.20323 0.111684 0.238354 -0.674208
145 1 6.61916 13.2404 6.64442 -1.61854 0.619585 -0.464495
146 1 8.3225 14.8429 8.33385 -0.419061 0.0403729 0.423942
147 1 9.93686 13.2294 6.69323 -0.274515 1.09603 1.19517
148 1 11.5392 14.9447 8.40163 1.77823 -0.0800359 -0.0576495
149 1 13.1414 13.2189 6.58162 0.204943 0.0897061 -0.848356
150 1 14.8539 14.9138 8.19187 -1.93467 0.710179 -0.40672
151 1 16.5086 16.5074 9.9091 -2.21695 -1.75401 -1.72349
152 1 1.7149 1.60039 11.5362 2.36576 1.98718 -0.692719
153 1 3.34526 0.0373665 9.84721 1.61723 1.62743 0.906569
154 1 4.92477 1.57391 11.6021 -0.252488 -0.814061 -1.45586
155 1 6.52662 0.0396342 9.98434 0.0119238 0.670579 -1.01463
156 1 8.15814 1.64458 11.6738 -1.12189 2.65108 1.59547
157 1 9.92065 0.0163948 9.99508 0.0310351 0.906257 1.50766
158 1 11.5755 1.6318 11.588 0.247519 -1.28061 0.143328
159 1 13.2282 0.020816 9.91656 -0.414556 0.249975 0.641222
160 1 14.9223 1.61105 11.5449 1.2045 -1.09462 0.373449
161 1 0.0659803 3.35408 9.99468 1.187 -0.348309 -0.552354
162 1 1.65639 4.92168 11.6377 -0.586939 -3.47018 -1.32545
163 1 3.2602 3.30541 9.97118 -1.58987 -0.263363 -1.057
164 1 4.84076 4.97676 11.6265 0.279159 0.339738 0.803889
165 1 6.58292 3.32235 10.018 -0.184992 -1.84938 2.67403
166 1 8.13345 4.95327 11.6985 -0.602144 -1.08985 0.137927
167 1 9.89737 3.4216 9.99737 -1.22234 0.45545 0.927396
168 1 11.6416 5.00261 11.627 2.5695 -0.159485 -0.386235
169 1 13.2722 3.33554 10.0612 -1.2077 0.949593 3.64242
170 1 14.8574 5.00974 11.5542 1.565 -0.687847 -0.497906
171 1 16.5197 6.58607 9.84357 -0.569226 -0.76561 -0.0112438
172 1 1.63006 8.24531 11.6945 -0.301454 0.683432 1.47843
173 1 3.22035 6.65034 9.92022 0.913995 -0.546062 2.38932
174 1 4.97102 8.14026 11.5028 0.363122 -0.691031 -0.742429
175 1 6.67128 6.48638 9.90179 0.921926 -1.96323 -0.439102
176 1 8.29623 8.28809 11.5697 -0.298194 1.30224 1.46474
177 1 9.91312 6.54478 10.0754 -0.47897 2.41031 0.745503
178 1 11.5994 8.27122 11.51 0.210934 0.0974167 -0.755129
179 1 13.2377 6.66214 9.84497 -0.173387 1.08029 0.804553
180 1 14.9577 8.25868 11.5107 1.29549 0.155428 0.614484
181 1 0.105028 9.96035 9.90017 -0.15533 0.477102 -0.407384
182 1 1.6533 11.5084 11.6338 0.174916 0.618678 1.94852
183 1 3.28907 9.87801 9.86564 -0.890117 -1.35376 1.00352
184 1 4.78046 11.5604 11.5675 -1.93819 1.83132 0.762486
185 1 6.58628 9.79811 9.92825 -1.16541 -0.835802 1.24693
186 1 8.18893 11.5064 11.5623 -1.68929 0.375604 1.78967
187 1 9.87872 9.86201 9.87273 -1.23117 -1.23045 0.475477
188 1 11.5751 11.5808 11.4328 1.46036 0.484712 -0.772764
189 1 13.2467 9.91465 9.90495 -1.75594 -1.89542 0.34855
190 1 14.8785 11.4399 11.5707 -3.12474 -0.705035 -0.261094
191 1 16.4845 13.2102 9.90467 0.415564 -2.35965 -0.379023
192 1 1.62814 14.7874 11.6372 -0.367898 -2.12406 -0.325683
193 1 3.26929 13.1721 9.88849 0.244107 0.278651 -0.383007
194 1 4.8509 14.8855 11.5192 -1.85122 0.772451 -0.257066
195 1 6.42252 13.2311 10.0247 -0.770781 0.587761 0.763362
196 1 8.25962 14.8542 11.6222 0.824748 -0.52239 -0.0257526
197 1 9.82519 13.1869 9.93424 -1.25791 -0.882755 0.196691
198 1 11.6567 14.76 11.5406 -1.23764 -2.06584 -1.83656
199 1 13.2257 13.2363 9.81302 -0.630876 -0.222556 0.0847708
200 1 14.8629 14.8439 11.5233 -1.29603 -2.37531 -0.663217
201 1 0.0512445 16.4593 13.2795 -1.0633 1.04563 -0.52241
202 1 1.62939 1.65275 14.9027 -0.2519 0.673826 0.0234722
203 1 3.3428 16.5033 13.2451 -1.82714 -1.40568 0.353261
204 1 4.96969 1.71241 14.9088 -0.0890453 0.451849 -2.35323
205 1 6.57455 0.0457973 13.2458 -0.200118 0.495742 1.85743
206 1 8.31783 1.70949 14.8637 0.7469 -0.72578 -0.178806
207 1 9.93968 0.00991681 13.2216 -1.12433 0.359798 0.52106
208 1 11.6294 1.64886 14.7011 -0.50834 0.756257 1.26966
209 1 13.2435 16.4179 13.2634 -0.415642 -0.234619 0.383236
210 1 15.0002 1.60173 14.8184 0.927038 -1.54645 -1.04312
211 1 0.00508769 3.35636 13.2751 -0.540382 -1.26429 -1.58815
212 1 1.54833 4.90989 14.9811 -0.586266 1.42043 1.94135
213 1 3.22676 3.26536 13.2667 0.0314305 -0.159885 0.627922
214 1 4.98844 5.00637 14.8849 -0.262396 1.89433 1.48044
215 1 6.66773 3.34179 13.2874 -0.632925 -1.31649 0.141022
216 1 8.25389 4.94431 14.8799 -0.423972 -0.503338 2.10048
217 1 9.94616 3.30478 13.1796 -0.504945 -1.05416 0.70057
218 1 11.5668 4.99561 14.7474 1.11251 -0.222458 -0.608424
219 1 13.3091 3.38235 13.1894 0.589871 2.59281 -1.24553
220 1 14.8501 4.98997 14.9085 0.663263 -0.458463 1.63857
221 1 16.4918 6.7429 13.2969 -0.403257 1.10119 2.87607
222 1 1.61274 8.39164 15.1381 -0.258167 1.13727 1.15446
223 1 3.10528 6.63423 13.396 -0.756289 -1.85379 1.68368
224 1 4.91486 8.15743 14.9462 -0.0572061 -1.99492 0.665976
225 1 6.5643 6.62164 13.2399 -0.879421 0.270362 -0.189139
226 1 8.34364 8.15888 14.8282 0.737169 -0.861423 -1.40077
227 1 9.8918 6.60723 13.1986 -0.592101 -0.546705 -0.0579887
228 1 11.6326 8.11117 14.883 0.317938 -0.940747 0.406696
229 1 13.3512 6.62363 13.2765 2.24696 -0.339753 -0.066508
230 1 14.9018 8.3159 14.9895 -0.695384 0.862621 1.88976
231 1 0.0196278 9.9213 13.3916 1.47087 2.80543 3.90921
232 1 1.69058 11.5713 14.9906 -0.346807 -1.06294 1.58625
233 1 3.31752 9.95124 13.2856 -1.5277 0.0441926 0.664028
234 1 4.98156 11.5433 14.9084 -1.10734 0.618107 0.251911
235 1 6.51836 9.79361 13.223 -2.12303 -1.66669 -0.782677
236 1 8.18265 11.4337 14.8324 0.180399 -1.69362 0.0665945
237 1 9.93986 9.93015 13.1965 2.15076 -1.65764 -1.90932
238 1 11.4226 11.4662 14.9831 0.484209 -0.748016 1.21529
239 1 13.2548 9.83243 13.2729 -2.73915 -0.156107 1.23028
240 1 14.7719 11.547 14.8287 -1.13674 -0.37597 0.893025
241 1 16.4574 13.0882 13.238 0.398753 -2.29275 -0.748965
242 1 1.59142 14.7707 14.85 0.144464 -1.03227 0.824722
243 1 3.31677 13.2093 13.3332 -0.317646 -0.0266997 1.39972
244 1 4.98452 14.8591 14.9057 0.383116 2.1481 -1.22447
245 1 6.59801 13.2592 13.2693 0.00843039 1.13247 -1.33468
246 1 8.23304 15.0328 14.8021 -0.16168 0.997138 -0.363517
247 1 9.77471 13.1954 13.2355 -1.05652 -2.53783 -0.746973
248 1 11.6022 14.9324 14.9321 -0.0458916 0.798728 0.445765
249 1 13.0519 13.2552 13.2312 1.06425 -0.662429 1.21186
250 1 14.8998 14.8358 14.8495 -0.0660285 -1.41138 -2.11214
