ITEM: TIMESTEP
720
ITEM: NUMBER OF ATOMS
250
ITEM: BOX BOUNDS pp pp pp
0.0000000000000000e+00 1.6520000000000000e+01
0.0000000000000000e+00 1.6520000000000000e+01
0.0000000000000000e+00 1.6520000000000000e+01
ITEM: ATOMS id type x y z vx vy vz
1 1 16.5099 0.0219697 0.0396923 1.5312 -1.44301 -1.19503
2 1 1.61432 1.56044 1.5884 0.00797564 -1.53778 1.14425
3 1 3.37871 0.081979 16.4286 -0.646982 -0.199729 0.337769
4 1 5.12151 1.7171 1.66119 0.899981 -0.185669 -0.187382
5 1 6.67281 16.4675 16.501 -0.00943142 0.263723 -0.908898
6 1 8.38176 1.64213 1.48232 0.0555423 1.09943 -1.33248
7 1 9.90196 16.4659 16.3484 -0.983539 1.51711 -0.910619
8 1 11.6134 1.74995 1.60957 0.266945 -1.70296 -0.132181
9 1 13.1212 16.3954 16.4761 0.818441 1.01946 -3.10359
10 1 14.684 1.58448 1.52985 1.33604 1.25971 -2.72038
11 1 16.4242 3.3922 0.0227318 0.312872 -0.786062 -1.41937
12 1 1.66304 4.98691 1.69244 -1.40059 1.1712 0.316327
13 1 3.32458 3.26258 0.159257 -0.0606971 0.547001 -0.668875
14 1 4.96808 4.94431 1.60558 -1.89533 -1.0969 0.639761
15 1 6.64877 3.28127 0.00130119 0.456125 0.322136 -1.94443
16 1 8.27026 5.03447 1.67099 1.28769 1.22486 1.57337
17 1 9.99804 3.29654 16.3788 0.547573 0.856843 -0.0186303
18 1 11.581 4.85448 1.68585 -1.60172 2.35719 -1.9182
19 1 13.2452 3.28021 16.3145 0.765128 -1.48273 -0.661255
20 1 14.8796 5.00035 1.66796 0.00521395 0.654246 1.03732
21 1 16.4697 6.61163 0.0736233 -0.662658 0.101151 -0.298079
22 1 1.67867 8.24536 1.66843 -1.23845 0.0179611 2.50743
23 1 3.2662 6.631 16.4566 0.45864 0.742433 1.83134
24 1 4.99811 8.22604 1.69111 1.48593 2.20422 -0.599706
25 1 6.70323 6.47207 0.0689741 -1.65076 0.276891 0.416103
26 1 8.20981 8.31781 1.71333 1.2399 0.159617 1.72782
27 1 9.9702 6.60518 0.0269299 -0.67824 -0.0526124 0.6143
28 1 11.612 8.26255 1.72835 0.123146 2.83888 0.234229
29 1 13.2174 6.68366 16.4669 1.76884 -0.0694683 -1.28446
30 1 14.7758 8.33375 1.65733 0.962168 1.56567 0.131997
31 1 0.0519086 9.8461 0.0148847 -0.00613901 1.86753 1.78266
32 1 1.80311 11.5213 1.68364 0.254225 1.62985 -0.314195
33 1 3.36265 9.87146 0.061524 -0.179291 1.05762 0.39757
34 1 4.97674 11.5862 1.83695 1.98917 -0.575286 0.042511
35 1 6.59591 9.86079 0.0931419 1.22196 1.17653 0.903063
36 1 8.22171 11.7162 1.61926 0.788555 0.11417 2.07048
37 1 9.92635 9.94491 0.0891008 0.35369 -0.134322 1.04781
38 1 11.536 11.528 1.63502 0.501864 0.177825 -1.71742
39 1 13.2688 9.94669 16.4944 -0.357602 0.788569 -0.259936
40 1 14.7941 11.5064 1.62399 -0.709446 -0.117287 1.33489
41 1 0.00799451 13.2172 0.0792942 -1.34842 -1.18016 -0.0688015
42 1 1.61924 14.9534 1.6329 2.37817 1.03005 -0.389075
43 1 3.27456 13.2353 0.127862 0.325981 0.0847755 -1.17438
44 1 5.00961 14.8821 1.66074 -0.0518555 0.229731 1.06102
45 1 6.62762 13.2201 0.0274019 -0.0530651 0.838704 1.16246
46 1 8.28537 14.948 1.63427 -0.173721 0.468141 0.510544
47 1 9.87402 13.2684 0.0230163 -0.208018 0.303604 0.651744
48 1 11.503 14.9054 1.60222 0.633795 0.597383 -1.28944
49 1 13.2218 13.1805 16.4144 -0.520383 -1.71477 -0.254494
50 1 14.7758 14.9111 1.57125 -0.163914 1.11373 -0.224277
51 1 16.4127 16.447 3.23187 0.985532 -1.60509 -1.36698
52 1 1.63061 1.74649 4.99172 -0.0154749 -1.7174 0.805104
53 1 3.29726 0.0123496 3.23147 0.853068 0.887135 -1.29456
54 1 5.00454 1.68971 4.91715 1.80413 0.183399 0.988318
55 1 6.71135 0.065214 3.14901 0.448453 1.80376 1.61487
56 1 8.4069 1.6263 4.87455 0.566898 0.254166 2.52099
57 1 9.95149 0.0890302 3.24712 0.340894 0.977392 -0.166149
58 1 11.592 1.74118 4.98338 -0.626619 0.336156 0.484292
59 1 13.1417 0.00230388 3.26416 -1.78473 0.169873 -0.432463
60 1 14.8365 1.6362 4.97449 0.898916 -0.630151 -1.422
61 1 16.4991 3.27234 3.23079 -0.422129 0.961571 -0.16805
62 1 1.55387 5.02104 4.95463 0.0729519 -0.628259 1.11586
63 1 3.39652 3.23814 3.3318 -0.603174 -0.252812 0.863394
64 1 4.90844 4.93394 4.90431 0.71384 -0.329465 0.120658
65 1 6.65896 3.38616 3.31123 -0.886729 -1.15774 1.28543
66 1 8.1794 4.90204 4.93621 0.482569 1.81476 1.87733
67 1 10.0359 3.44742 3.30742 0.379223 0.450483 -0.0538251
68 1 11.6491 4.87914 4.97817 0.927856 0.5601 -0.957966
69 1 13.2865 3.27678 3.29848 -0.235222 0.703221 0.407311
70 1 14.9168 4.92167 4.85331 -2.43943 -0.256774 -0.26763
71 1 0.0819089 6.57856 3.24089 0.0829346 1.51628 -0.577344
72 1 1.62188 8.28246 4.92526 0.849287 1.73306 0.608869
73 1 3.25999 6.57298 3.21914 1.09204 1.20542 2.22857
74 1 5.07541 8.20653 4.8864 0.459815 1.17038 3.26519
75 1 6.59803 6.51788 3.42082 -1.46186 -0.0617257 1.10762
76 1 8.28083 8.19054 4.9664 -0.158313 -1.04036 3.8508
77 1 9.93676 6.49203 3.30868 -0.681086 0.135781 1.32391
78 1 11.5619 8.16017 5.01224 2.08774 -0.0558025 1.39866
79 1 13.2281 6.56748 3.31652 0.0798464 1.82529 1.05245
80 1 14.9043 8.26894 4.76866 1.67367 -0.405523 1.50559
81 1 0.0819634 10.0407 3.28905 0.566078 -1.26883 0.679996
82 1 1.71987 11.5248 4.85858 1.11021 -0.781801 0.950905
83 1 3.36342 9.9306 3.35605 2.93606 0.358965 1.51927
84 1 5.1076 11.5695 5.0353 2.23009 -0.698247 0.287181
85 1 6.64248 9.99766 3.26375 0.432847 -0.140882 1.74345
86 1 8.32203 11.6111 5.00743 -1.18448 0.829215 0.75986
87 1 9.84887 10.0231 3.35824 -1.05976 1.12171 0.0262012
88 1 11.4836 11.5939 5.02612 1.33188 -0.0202057 0.0445661
89 1 13.1902 9.92218 3.29178 2.83985 -0.282691 -1.14692
90 1 14.8434 11.4808 4.86186 1.51465 -1.59922 0.205768
91 1 16.4332 13.2558 3.25496 0.617553 0.757036 1.09152
92 1 1.54409 14.9359 4.80219 1.78565 1.25176 1.2045
93 1 3.35099 13.3509 3.40235 0.235933 2.34604 -0.687696
94 1 5.13537 14.9504 4.90138 -0.783438 -2.13296 -0.370403
95 1 6.65255 13.2986 3.28496 -0.28378 0.797857 2.10416
96 1 8.28097 15.0734 4.90753 0.234122 0.494586 -0.132369
97 1 9.83917 13.2757 3.36117 0.109488 0.452242 -0.888925
98 1 11.4943 14.9085 4.98549 2.46248 2.14083 0.488832
99 1 13.1203 13.1897 3.35854 -1.68253 -0.429301 1.24083
100 1 14.8371 14.895 4.86241 -0.77269 2.02811 0.341542
101 1 0.0500983 16.4422 6.43639 1.42523 -1.09675 -2.12503
102 1 1.6158 1.73196 8.35015 -0.713647 0.572842 -1.96953
103 1 3.32471 0.0559917 6.48657 0.191964 -1.16398 0.120757
104 1 4.8627 1.6307 8.29382 -0.749112 0.737478 -0.803163
105 1 6.49298 0.0555723 6.64723 0.376512 2.65845 0.477669
106 1 8.2175 1.63419 8.26374 -0.966748 -1.61105 1.31924
107 1 10.0113 0.0457413 6.65016 0.993051 0.694069 0.30302
108 1 11.6924 1.5521 8.24471 -0.144201 -0.701784 -0.96765
109 1 13.2242 16.4055 6.59132 1.10411 -0.575017 -0.768556
110 1 14.9477 1.65748 8.21004 0.175293 1.39237 -0.278806
111 1 16.493 3.2726 6.72562 0.985058 0.763522 0.85932
112 1 1.60406 4.96121 8.20244 0.854458 0.378196 0.356393
113 1 3.28621 3.21259 6.60885 0.609538 -0.854972 -1.82754
114 1 4.80831 4.89717 8.29196 -2.75984 -1.7036 -0.293643
115 1 6.60285 3.28822 6.69969 0.170939 2.2176 0.0669355
116 1 8.16792 4.92993 8.40834 -0.169872 -0.219557 0.658965
117 1 9.96146 3.33303 6.6257 -0.803327 0.449772 -0.131645
118 1 11.6809 5.0103 8.29528 -1.55755 0.757797 0.509235
119 1 13.179 3.22238 6.6176 -1.26643 1.31517 -0.722595
120 1 14.9434 4.97608 8.25632 -0.356207 0.0622415 1.86646
121 1 16.5084 6.73338 6.68981 1.00617 -0.25584 0.236284
122 1 1.66931 8.39601 8.25157 -1.65229 -0.321592 1.01783
123 1 3.32574 6.6823 6.47915 -0.413282 -0.452197 0.0239618
124 1 4.91146 8.24945 8.25067 0.360896 0.683156 1.41145
125 1 6.56798 6.50902 6.70458 -0.182446 -1.02233 0.948682
126 1 8.25689 8.15994 8.26315 2.95961 -1.98212 0.768289
127 1 9.8878 6.54959 6.53925 0.582374 1.09372 0.629847
128 1 11.574 8.28608 8.42858 0.0654889 -0.250761 0.895006
129 1 13.2923 6.63644 6.71744 -2.62867 -1.74559 -0.719046
130 1 15.0144 8.40862 8.33694 -0.417806 0.570691 -0.994593
131 1 0.0147687 9.99815 6.54776 1.04133 0.580085 0.578229
132 1 1.66152 11.5061 8.22134 -0.553609 -0.911212 -0.412981
133 1 3.3958 9.95207 6.44675 3.04967 0.721993 -0.00792895
134 1 4.97889 11.6115 8.22103 -1.88679 -1.10044 1.46985
135 1 6.51205 9.79093 6.54272 1.5855 0.262052 0.79198
136 1 8.19732 11.4069 8.07984 -1.23388 1.81788 1.03165
137 1 9.98941 9.74067 6.75259 0.39706 -0.448766 0.655381
138 1 11.4973 11.6307 8.259 -0.273059 -0.0876607 1.44769
139 1 13.1847 9.88735 6.55633 1.68919 0.83132 0.85824
140 1 14.7603 11.5585 8.15796 0.485842 0.579252 -0.959932
141 1 16.4836 13.191 6.54744 -0.3847 0.603372 -0.18779
142 1 1.72356 14.7374 8.13799 0.502169 -0.814136 -0.326218
143 1 3.47227 13.2108 6.47792 0.11241 -0.69682 0.761489
144 1 4.97185 14.8474 8.37817 0.218661 -1.97405 -1.525
145 1 6.63773 13.2495 6.64454 0.336998 -0.737184 -0.295286
146 1 8.28938 15.0584 8.20748 0.210467 -2.3598 1.7789
147 1 9.98083 13.2205 6.59795 0.205016 0.268762 0.0551218
148 1 11.5288 14.9163 8.33698 0.504583 -2.97121 -0.0748128
149 1 13.0981 13.2979 6.62124 -2.12126 -2.23197 0.13459
150 1 14.9053 14.8181 8.29524 -1.6085 -0.992909 -1.49964
151 1 0.00546288 16.4 9.94593 -1.47256 -2.55978 -1.2887
152 1 1.6696 1.63841 11.5297 -0.57621 -1.19941 -1.7125
153 1 3.24041 16.4522 9.74161 2.14815 0.17997 -1.66641
154 1 4.77772 1.74101 11.602 -0.168546 -1.50782 -2.04705
155 1 6.57313 0.0509794 10.0329 1.87032 -0.65731 -1.27389
156 1 8.17248 1.80747 11.5671 0.524645 -1.24051 -2.5404
157 1 9.96576 16.4689 10.0362 -0.518352 0.149103 -0.555905
158 1 11.5246 1.66688 11.466 1.56872 -1.76445 -2.58621
159 1 13.336 0.0787579 9.93784 -1.45752 -1.65498 -0.555934
160 1 14.8798 1.71828 11.5502 -1.03254 -0.81843 -1.69832
161 1 16.4755 3.34141 10.0355 -1.69767 -0.0366906 -1.45003
162 1 1.63278 4.91372 11.5644 0.97006 -0.0364779 1.117
163 1 3.06191 3.33009 10.0043 -0.670954 -2.59984 -0.162033
164 1 4.89026 4.87058 11.6337 -1.59226 -0.54304 0.637795
165 1 6.39408 3.25426 9.84844 -1.93455 -0.89393 1.81882
166 1 8.26684 5.09813 11.6463 -3.61326 1.86568 -0.822453
167 1 9.85427 3.27835 9.82886 0.0698918 1.45295 -0.086655
168 1 11.5863 4.99404 11.4434 0.294858 0.888161 -1.1298
169 1 13.363 3.3015 9.71871 1.56257 -0.257774 1.00508
170 1 14.773 4.98218 11.5908 -0.554417 1.05927 -0.94086
171 1 16.4576 6.55443 9.87179 -0.667341 0.0962756 1.29243
172 1 1.7587 8.2115 11.4982 -1.25808 -0.118908 1.47125
173 1 3.15868 6.52402 9.87442 0.125851 -0.75533 -0.522695
174 1 4.89549 8.30726 11.6954 0.933755 -1.59286 -0.590225
175 1 6.41667 6.62376 10.0741 0.665373 0.878141 0.812986
176 1 8.2968 8.19529 11.7184 0.0727085 -1.33095 0.421814
177 1 9.81967 6.59774 9.90665 -0.252788 1.60097 2.00498
178 1 11.6179 8.14652 11.692 -0.680691 -1.22502 0.459739
179 1 13.3317 6.61192 9.89234 -0.892369 -0.800377 -1.33001
180 1 14.9478 8.24281 11.6746 0.692965 -1.43802 -0.054822
181 1 16.4764 10.0039 9.79652 1.43038 1.28711 1.35212
182 1 1.68056 11.3994 11.5652 -1.05744 1.15531 -0.152529
183 1 3.27737 9.84972 9.80588 0.0577638 1.38599 -1.10277
184 1 4.98161 11.5886 11.4814 -0.675732 -1.78974 0.810427
185 1 6.61397 9.82139 9.93253 -1.36117 0.40639 1.01288
186 1 8.18037 11.473 11.6043 -1.60018 -0.368065 -0.919061
187 1 10.0163 9.76842 10.0086 -1.49454 0.323503 -0.374962
188 1 11.5506 11.4682 11.5303 -0.0890452 -1.84103 -2.55556
189 1 13.2528 9.9276 9.93967 0.102406 0.232752 -1.55539
190 1 15.0013 11.6328 11.4883 -2.31031 -0.996118 -0.275959
191 1 16.4999 13.2721 9.8944 -0.492153 -1.72702 0.0679085
192 1 1.70507 14.8764 11.5959 -0.63221 -2.17152 1.04678
193 1 3.26963 13.0602 9.82861 0.305323 0.8836 0.835487
194 1 4.88397 14.7756 11.6179 0.729441 -1.76746 -1.83791
195 1 6.83089 13.1961 9.86577 -0.863306 -0.455937 -0.79564
196 1 8.33821 14.7943 11.7428 -2.05816 1.09401 -0.815523
197 1 9.7185 13.1728 9.93222 -0.0245672 0.682561 -0.279572
198 1 11.6629 14.834 11.5554 -2.94483 1.61744 -0.0654022
199 1 13.2572 13.2759 9.86765 -0.222086 -0.737666 -2.09175
200 1 14.8499 14.9569 11.6327 -1.33249 -0.231387 -1.00299
201 1 16.5195 16.5131 13.1571 -1.39573 -1.17232 -1.60203
202 1 1.70232 1.63204 14.9282 -0.532669 -1.77388 0.286688
203 1 3.32092 16.4983 13.2013 0.188902 -1.29526 -0.382032
204 1 4.92957 1.66647 14.8321 0.670056 -0.504221 -1.45966
205 1 6.59398 0.020569 13.1932 -0.217887 -1.38727 -0.633308
206 1 8.22946 1.72228 14.8125 0.446636 0.838824 0.952696
207 1 10.0372 16.495 13.1524 -0.778154 -0.955366 -1.11258
208 1 11.5788 1.69121 14.8585 2.15435 1.95595 -1.08968
209 1 13.1786 0.072075 13.1983 -0.418936 -2.4012 -2.37616
210 1 14.9673 1.55137 14.887 -0.158504 0.605218 -0.837994
211 1 16.4288 3.32538 13.285 -1.82931 -1.0333 -2.0494
212 1 1.60931 4.97745 14.8361 -1.80269 -0.0152211 -0.967976
213 1 3.18695 3.29567 13.2024 2.21998 -0.378495 -1.81958
214 1 4.86735 4.97506 14.9555 0.256186 -1.47229 0.468253
215 1 6.45604 3.3995 13.2744 -1.56197 0.135134 0.930334
216 1 8.28201 4.97019 14.8606 -3.18166 -0.72556 -0.505535
217 1 9.96617 3.35918 13.1981 -0.521367 -2.93753 -0.289453
218 1 11.5963 4.94997 14.9082 -0.169283 0.602465 1.33364
219 1 13.2643 3.34112 13.1925 2.46899 -0.118667 -1.19048
220 1 14.8688 4.89667 14.8771 0.17186 0.376778 -0.936227
221 1 16.4334 6.55137 13.21 0.421675 0.0552377 0.821108
222 1 1.59997 8.22577 14.8564 0.956896 0.346767 0.345414
223 1 3.1837 6.58827 13.2022 -1.05895 -0.907042 2.20543
224 1 5.00687 8.24541 14.9842 0.2142 0.688451 1.12616
225 1 6.51601 6.57509 13.3241 0.723392 1.92623 1.37563
226 1 8.19657 8.25134 14.9633 2.44763 1.81635 -0.224543
227 1 9.98873 6.70074 13.3963 -2.14288 2.02451 -2.14827
228 1 11.5165 8.32525 14.9505 0.29839 -0.116225 -1.48945
229 1 13.1239 6.58726 13.3107 -0.838209 1.23484 0.68608
230 1 14.9065 8.27814 14.8585 0.538892 -1.21984 2.84999
231 1 0.0628834 9.88568 13.189 0.317178 -0.520642 1.02469
232 1 1.63483 11.5525 14.9979 0.0766786 1.94912 -0.0364258
233 1 3.31778 9.82303 13.3751 1.85006 -0.340858 -1.11221
234 1 4.82743 11.5615 14.994 -2.26498 1.25464 -0.914778
235 1 6.68686 9.87834 13.3365 0.364478 -0.299601 0.0695267
236 1 8.22167 11.5998 14.9242 0.0425569 -1.78873 0.122815
237 1 9.83825 9.83649 13.2427 0.493522 -0.261118 1.23286
238 1 11.4746 11.6152 14.9192 0.764194 1.56275 -0.66102
239 1 13.1798 9.96929 13.2217 -0.726872 -1.6862 0.31801
240 1 14.9539 11.6021 14.7951 -0.176931 1.90814 0.134193
241 1 0.0226958 13.1807 13.2629 1.35612 0.926957 0.102654
242 1 1.67687 14.8206 14.9285 1.90548 -0.249056 -1.29074
243 1 3.28785 13.1578 13.2019 -0.275313 -0.0370936 -1.09703
244 1 5.0183 14.814 14.7613 -0.0145338 0.557274 1.47373
245 1 6.56915 13.0902 13.2225 -1.94803 -0.903477 -1.23427
246 1 8.27176 14.8652 14.7509 0.02062 -2.06981 -0.340328
247 1 9.87536 13.2418 13.1567 -0.638429 0.0990143 0.110853
248 1 11.561 14.8007 14.8231 -0.0332229 -0.318003 -0.647111
249 1 13.2172 13.2414 13.1711 -2.09536 0.281665 -2.73339
250 1 14.8658 14.9578 14.8069 -0.171882 -0.278384 -0.919468
