ITEM: TIMESTEP
220
ITEM: NUMBER OF ATOMS
250
ITEM: BOX BOUNDS pp pp pp
0.0000000000000000e+00 1.6520000000000000e+01
0.0000000000000000e+00 1.6520000000000000e+01
0.0000000000000000e+00 1.6520000000000000e+01
ITEM: ATOMS id type x y z vx vy vz
1 1 16.5184 16.4989 16.4299 0.817268 1.46132 2.05288
2 1 1.56418 1.53757 1.71657 0.331019 1.34647 -2.22717
3 1 3.27434 0.0690599 0.112241 0.717985 -0.470366 0.09581
4 1 4.89194 1.58952 1.67836 1.2228 1.40068 -1.76036
5 1 6.59713 0.11112 0.093116 1.52196 -1.02936 -1.55766
6 1 8.22018 1.74157 1.78042 1.925 0.0954825 -0.00271288
7 1 9.87234 16.5143 0.178244 1.0378 0.829329 -2.36142
8 1 11.4583 1.77932 1.76107 -0.0889444 -0.62262 -1.63644
9 1 13.2635 0.0946162 0.100372 0.275173 -0.617906 0.761349
10 1 15.0715 1.65397 1.54958 -0.523087 0.291496 1.01976
11 1 0.063347 3.31714 16.5085 0.660682 1.02696 0.461351
12 1 1.5517 5.03503 1.64965 2.77453 -0.341778 -0.119418
13 1 3.29282 3.34856 0.0272658 0.279132 -0.254049 0.207486
14 1 4.89717 5.02565 1.62115 -0.294438 -1.60141 -1.53878
15 1 6.58255 3.34487 16.4677 2.67032 -0.727168 0.764151
16 1 8.1671 4.90562 1.58629 0.558096 -0.909585 -0.809503
17 1 9.83294 3.21432 0.112552 -0.00297097 0.076769 -0.855873
18 1 11.6025 4.91055 1.72551 0.0360443 0.12758 -1.06256
19 1 13.2702 3.28194 0.138032 -2.7653 0.488231 -0.640042
20 1 14.9742 4.99624 1.65825 -2.20852 -0.103161 0.664471
21 1 16.4998 6.41027 16.4114 -1.9162 -0.106247 1.35394
22 1 1.6508 8.21267 1.62167 0.808956 -0.580285 -0.775195
23 1 3.27639 6.52577 16.4797 1.54528 -2.0377 0.518917
24 1 4.96176 8.20915 1.53921 -0.0629667 -2.2911 1.7152
25 1 6.57936 6.44651 16.5073 -0.422988 1.63038 1.15715
26 1 8.17035 8.13847 1.48291 -1.35851 1.83345 0.299001
27 1 9.90835 6.51189 16.4761 0.519027 1.97243 2.06219
28 1 11.6162 8.15891 1.56536 1.31005 -0.191701 1.26381
29 1 13.122 6.43191 0.0300692 -0.125868 -0.0545446 0.92395
30 1 14.9381 8.15936 1.65943 0.338696 0.196535 -1.549
31 1 16.4842 9.77123 0.0396031 -0.38095 -0.731537 0.129886
32 1 1.64782 11.5512 1.45706 -1.3279 1.2945 1.37207
33 1 3.25461 9.88122 16.3009 1.6079 -0.205898 1.48563
34 1 4.845 11.5016 1.52168 -0.252765 0.305661 1.461
35 1 6.66147 9.9541 16.4511 -0.839271 -1.22747 2.01068
36 1 8.27565 11.5889 1.61148 0.244747 -0.138151 1.43982
37 1 9.89304 9.83042 0.0500646 1.52947 3.02105 -0.828577
38 1 11.6703 11.4583 1.69354 -1.3629 -1.14203 -0.602129
39 1 13.2322 9.83997 0.0233901 0.00202652 0.212076 1.50768
40 1 14.8882 11.5306 1.71898 -0.98883 1.42478 0.137341
41 1 16.515 13.2055 0.0344938 1.73862 -0.541425 -1.32879
42 1 1.62042 14.8848 1.62952 -2.24461 -0.328722 1.55875
43 1 3.23411 13.2893 16.4028 -0.233401 -1.22758 0.477627
44 1 4.90394 15.0284 1.67177 -1.85497 -1.32604 -2.25865
45 1 6.53819 13.1183 0.0886265 -1.84982 2.67779 -1.19204
46 1 8.22096 14.7198 1.65571 -1.3985 0.373491 -0.184216
47 1 10.0805 13.1434 0.00779943 -0.352328 0.629346 -0.047663
48 1 11.5712 14.854 1.68027 -0.948725 1.32255 -0.4073
49 1 13.2469 13.1684 0.0155019 -1.68805 0.732977 0.155383
50 1 14.9935 14.8926 1.6298 0.59007 -1.1068 1.75178
51 1 0.0388435 0.0174151 3.35685 -0.0505493 -0.608546 2.0219
52 1 1.68145 1.55803 4.87516 2.30654 1.28302 1.09508
53 1 3.20032 16.4341 3.3227 0.790578 1.44959 -0.415439
54 1 4.95807 1.55878 4.94014 -0.762145 0.397249 -0.858203
55 1 6.48444 16.5191 3.34431 1.59878 -0.216261 0.478358
56 1 8.174 1.58304 4.93781 2.24437 -0.0942924 0.719788
57 1 9.89071 16.4703 3.23771 0.351635 0.614761 0.24937
58 1 11.5079 1.54991 4.83029 0.794262 1.8372 -1.87619
59 1 13.3895 0.0174912 3.347 -1.09618 -1.52903 -0.95324
60 1 14.7982 1.74867 5.00532 0.0617371 -1.12995 -0.580611
61 1 16.3557 3.32329 3.28923 0.282479 -0.248291 -0.191584
62 1 1.62216 4.93178 4.87023 -0.0518828 -0.0869548 0.997037
63 1 3.29393 3.28864 3.11306 1.30384 -0.381293 -0.195314
64 1 4.92818 5.07416 4.88246 -0.185659 0.0270081 -0.575016
65 1 6.54198 3.40874 3.30289 -0.253388 -1.32845 -0.421002
66 1 8.22613 4.96979 4.86183 1.58493 -1.73374 1.66551
67 1 9.83698 3.32547 3.36426 1.25591 -0.342756 -0.692164
68 1 11.4268 4.97127 4.85796 2.50983 0.0308857 0.902914
69 1 13.0612 3.28688 3.35933 -1.23608 0.614226 -0.323401
70 1 14.837 5.00143 4.91226 1.47793 -0.61862 -0.327681
71 1 16.5188 6.54714 3.33556 -0.0852941 -0.30813 -0.860895
72 1 1.73669 8.25438 5.09615 -0.454505 -0.439211 -1.85018
73 1 3.12831 6.77296 3.25443 -0.52694 0.240742 -0.282701
74 1 4.90326 8.2402 5.09836 0.926363 -1.58882 -1.72997
75 1 6.51483 6.67316 3.37866 1.52279 -0.91038 1.10352
76 1 8.29936 8.39946 4.93605 -0.745736 -0.313141 1.15346
77 1 9.9147 6.5994 3.18423 0.860644 -0.185653 0.692093
78 1 11.5668 8.26828 4.8798 -1.30948 -0.0794866 0.9349
79 1 13.14 6.68357 3.2311 1.85136 0.689792 0.600357
80 1 14.9341 8.22327 4.99138 -0.342259 1.11473 0.752739
81 1 0.00721823 9.82919 3.38488 -1.64274 -0.587292 -0.195381
82 1 1.64553 11.6064 4.83894 0.187689 0.774371 -0.675027
83 1 3.22173 9.91299 3.07028 -0.505594 -0.798364 1.66267
84 1 4.96952 11.5024 4.86268 0.533051 0.13459 0.34511
85 1 6.44342 9.83665 3.21554 0.557417 -0.651306 0.218425
86 1 8.19501 11.572 4.87245 -0.554798 1.38306 0.356038
87 1 9.91394 9.84485 3.16242 1.64101 1.60952 1.54181
88 1 11.6839 11.6437 4.86798 -2.6199 1.11386 -0.16481
89 1 13.2066 9.77375 3.23821 1.05884 2.39053 -0.883306
90 1 14.9117 11.529 4.93274 -3.04019 -1.66846 -1.06977
91 1 16.4544 13.1479 3.32635 -3.82821 1.03561 -0.687024
92 1 1.55252 14.8422 4.96239 -0.641926 -0.623793 -1.47246
93 1 3.3018 13.1376 3.13823 0.339096 0.128222 0.840815
94 1 4.82358 14.8601 5.11185 1.83843 1.91739 -2.58673
95 1 6.51144 13.1769 3.22921 1.3841 -0.296855 -1.76007
96 1 8.22044 14.7788 4.8861 -1.03715 1.77577 1.27042
97 1 9.97891 13.1942 3.14556 -0.377867 -1.5815 -0.3498
98 1 11.674 14.7434 5.01159 -2.82772 -0.892067 0.307302
99 1 13.2901 13.2402 3.20239 -2.30724 2.19455 -0.903231
100 1 15.0549 14.9013 5.02979 0.253236 -0.803982 0.683567
101 1 16.4912 0.0797109 6.5767 0.0422684 -1.0081 -0.69954
102 1 1.75357 1.82201 8.29068 0.491894 -0.443929 0.551547
103 1 3.1457 0.0268207 6.71293 0.569654 -0.445398 -0.669194
104 1 5.03206 1.74551 8.27728 0.139582 -2.00047 -0.392301
105 1 6.61635 0.0257729 6.67297 1.13743 -1.44873 0.550484
106 1 8.30053 1.83605 8.26475 -0.703901 1.08662 0.852178
107 1 9.89706 16.4967 6.48445 0.81556 1.50896 2.36149
108 1 11.3693 1.73543 8.20008 0.450394 -1.1807 0.81441
109 1 13.2414 0.0846795 6.56406 0.947767 -0.338957 1.04758
110 1 14.8671 1.8821 8.30904 1.33585 -1.88333 0.886564
111 1 0.0128309 3.36164 6.5392 1.42421 -2.01059 0.275429
112 1 1.65224 4.88842 8.28559 -2.92675 -1.49097 -0.296641
113 1 3.31911 3.39425 6.48127 -0.31397 -0.836409 0.416195
114 1 5.07489 4.86166 8.11111 -2.32308 2.73755 0.843759
115 1 6.7277 3.28278 6.47756 -0.0954717 0.850762 1.10917
116 1 8.29348 4.9668 8.31647 -1.31257 -1.33017 -0.425369
117 1 9.77065 3.24115 6.50874 0.941779 2.45144 -0.910088
118 1 11.4835 4.95958 8.21394 0.938223 -0.301338 -1.00831
119 1 12.9338 3.35774 6.57395 2.72618 -1.64913 -0.367985
120 1 14.7074 4.86221 8.25359 0.407177 2.02733 -0.806071
121 1 16.5181 6.51789 6.63981 -0.730483 1.65019 0.345699
122 1 1.62072 8.14683 8.33327 1.8955 1.90526 -2.3435
123 1 3.329 6.51615 6.62797 0.330358 0.317152 1.08573
124 1 4.91632 8.22458 8.18555 0.255886 -2.06679 -0.925594
125 1 6.75098 6.68705 6.46203 -0.84893 -0.910011 0.0307876
126 1 8.32334 8.15617 8.21109 -0.249969 -1.52272 0.325046
127 1 9.86424 6.61393 6.4841 0.152749 -0.245754 2.80535
128 1 11.4971 8.21107 8.12574 -1.46532 -0.979011 1.73741
129 1 13.1471 6.50072 6.46944 0.338385 0.740688 1.21013
130 1 14.8248 8.09317 8.32809 0.741672 -0.083684 -0.137183
131 1 16.5167 9.89233 6.62332 -0.536239 1.44119 -0.184751
132 1 1.53352 11.6026 8.31147 3.45074 0.830413 -0.862787
133 1 3.21691 9.93063 6.6493 0.557788 0.087244 -1.29055
134 1 4.90842 11.6056 8.35777 3.08196 0.175601 -0.213137
135 1 6.54837 9.96817 6.67296 1.41156 1.65084 0.59441
136 1 8.31496 11.6355 8.17958 0.540238 -1.1781 1.1981
137 1 10.0289 10 6.53162 -0.439585 -2.09341 0.403753
138 1 11.4988 11.6118 8.29355 -0.401487 -0.675187 -1.66464
139 1 13.3556 9.85592 6.53095 1.896 -0.566459 0.469744
140 1 14.8069 11.5419 8.3718 -0.0567084 0.137372 -1.13538
141 1 0.0217054 13.1604 6.69201 -0.658947 3.71798 0.236585
142 1 1.59892 14.8836 8.41626 0.165372 0.635231 -1.78641
143 1 3.14954 13.0774 6.73917 -1.39282 1.88971 -1.20437
144 1 4.93693 14.8997 8.18143 0.313485 2.33641 0.407426
145 1 6.55222 13.2341 6.57298 -0.285796 -0.492656 0.370414
146 1 8.3723 14.8638 8.14253 -1.6748 0.850979 0.992918
147 1 10.0283 13.2299 6.64152 -1.81809 -1.65446 1.38844
148 1 11.5476 14.9301 8.28798 0.567799 0.252959 -0.202726
149 1 13.3072 13.2308 6.58125 -0.526195 -1.2694 -1.2493
150 1 14.8778 14.8306 8.22397 0.215553 0.541142 0.786148
151 1 16.4315 0.0483926 9.86069 1.66224 0.812835 2.09712
152 1 1.59081 1.6683 11.549 0.515371 -1.02825 3.02553
153 1 3.41078 0.166107 9.85537 -0.490842 -1.97448 0.22886
154 1 5.08378 1.54514 11.6259 0.791053 0.116576 0.717347
155 1 6.70517 0.104747 9.71808 -1.22934 -0.902365 -0.515638
156 1 8.28718 1.55855 11.654 -0.455545 1.7576 -0.362614
157 1 9.94997 16.5123 9.89351 0.444049 1.8065 -0.853452
158 1 11.6296 1.61083 11.7707 -1.32035 1.97337 -1.51325
159 1 13.1932 0.0364917 9.80918 0.89049 0.852565 -0.0755224
160 1 14.8356 1.54757 11.6381 1.56015 -1.78067 1.50637
161 1 0.159947 3.37758 10.0036 0.00892927 -1.28475 -0.981394
162 1 1.71833 4.89522 11.636 -2.54252 0.690002 -0.755846
163 1 3.45981 3.39618 9.90104 -2.2618 2.86726 0.395251
164 1 5.06196 4.93371 11.6124 -2.70342 -0.382342 0.503727
165 1 6.77018 3.25209 10.0186 -2.08397 0.26408 -2.4989
166 1 8.40182 5.00973 11.5471 -0.746487 -1.32413 1.89305
167 1 10.0733 3.26199 10.038 -2.50181 0.310032 -0.736289
168 1 11.5725 5.00971 11.7425 -2.64549 -2.06849 -1.88017
169 1 13.1629 3.27009 10.118 -0.045038 1.00224 -0.473032
170 1 14.8755 4.95435 11.5997 -2.41978 0.796847 -0.105352
171 1 0.0844426 6.51068 9.93123 -2.26263 2.01307 -1.08803
172 1 1.73647 8.24426 11.6335 -0.764805 0.842279 0.0656122
173 1 3.52037 6.58048 9.944 -0.313982 1.84265 -0.353845
174 1 5.11477 8.32268 11.491 -0.879723 -0.506607 -0.43056
175 1 6.57381 6.66652 9.77066 -2.09601 0.644315 -0.181111
176 1 8.25322 8.34927 11.4493 -1.14195 -1.17313 2.04605
177 1 9.93767 6.72941 9.79647 0.0753415 -1.85042 -0.0898767
178 1 11.5204 8.34696 11.536 0.434284 0.695126 0.976605
179 1 13.1426 6.57637 9.90243 0.259714 0.227866 0.329319
180 1 14.8551 8.25166 11.5259 0.299398 0.392599 0.753495
181 1 16.4641 9.89127 9.81992 0.706101 -1.09776 -0.817959
182 1 1.54454 11.6586 11.659 0.562647 -1.74318 -1.00348
183 1 3.27722 9.92199 9.96555 -0.138937 0.468054 -1.35493
184 1 4.91376 11.5549 11.6123 -0.636181 -0.520886 -1.67489
185 1 6.68125 9.92006 9.85196 1.38466 -0.379441 2.00151
186 1 8.28542 11.6351 11.6227 -0.643366 0.786684 1.63533
187 1 10.0381 9.97446 9.84266 1.36854 0.870567 0.51521
188 1 11.5907 11.5747 11.6987 1.33434 -0.600142 1.4696
189 1 13.2018 9.84968 10.0073 -0.93724 0.163695 -1.49018
190 1 14.8946 11.6174 11.6685 0.954221 -0.431359 0.610853
191 1 16.4857 13.1826 10.0248 0.368934 0.58971 -0.92788
192 1 1.68603 15.017 11.6863 -0.192206 -0.881624 1.21839
193 1 3.3611 13.2919 10.0472 0.192138 0.221488 -1.20668
194 1 5.03156 14.9715 11.5185 -0.695348 -0.113522 0.486351
195 1 6.58776 13.2643 9.88257 0.275536 -1.30155 1.16056
196 1 8.28112 14.8034 11.5147 -1.29245 1.82846 1.1971
197 1 9.96679 13.2994 9.93994 -2.20685 0.105507 -0.349066
198 1 11.5832 14.8876 11.684 1.10329 -1.5956 -0.430312
199 1 13.112 13.1967 10.0359 0.768605 -1.4906 0.225544
200 1 14.8356 14.9001 11.458 1.38604 -1.7568 -0.660815
201 1 16.464 16.4899 13.2642 -0.738802 -0.900162 1.07315
202 1 1.67099 1.64394 14.8828 -1.32334 -0.00261759 0.606203
203 1 3.31488 0.145574 13.2043 0.134175 -1.09556 1.73475
204 1 4.95722 1.74912 14.8862 -0.500336 -0.86141 -0.107132
205 1 6.59436 16.4374 13.3192 -1.0895 0.0602704 1.08306
206 1 8.29615 1.71238 14.8812 2.17167 0.0534614 -0.131915
207 1 9.78095 0.0510898 13.3259 1.3701 0.482652 -3.64446
208 1 11.4668 1.71066 15.0944 0.050254 0.975378 -1.84834
209 1 13.2467 16.4942 13.3666 2.70986 1.0758 -0.843661
210 1 14.8639 1.75558 14.8867 1.78506 -0.435575 -1.37918
211 1 0.079411 3.22444 13.2134 -1.25362 1.55952 0.218835
212 1 1.72254 4.90393 14.87 -1.46913 0.509254 -0.362855
213 1 3.34659 3.2521 13.1414 -2.35952 0.579353 0.0574911
214 1 4.98261 4.96701 14.9198 0.0799489 0.632855 -0.697369
215 1 6.75777 3.30464 13.1581 -0.609381 0.169545 -1.7137
216 1 8.30765 4.87595 14.7846 -1.53854 0.417017 2.11022
217 1 10.0333 3.16147 13.2904 -0.736589 -1.18214 -0.549417
218 1 11.5703 4.83951 14.9241 -1.41088 1.19792 -0.0436797
219 1 13.2981 3.29175 13.3115 -0.0310817 0.31324 0.0751119
220 1 14.8283 4.93716 14.8246 0.178138 -0.655815 1.35825
221 1 0.120569 6.59392 13.1966 -0.0109552 1.23323 -0.521843
222 1 1.66164 8.20323 14.8624 1.68926 0.525394 0.909574
223 1 3.45984 6.64215 13.2052 -1.68959 0.802244 0.685636
224 1 4.97343 8.18993 14.8743 0.507682 0.635772 0.269405
225 1 6.60475 6.74299 13.1522 -1.46997 -1.48879 -0.261935
226 1 8.38409 8.2681 14.7472 0.0302814 -0.801984 1.30877
227 1 9.90165 6.71969 13.1356 0.825 -0.957113 1.85105
228 1 11.6766 8.23461 14.789 -0.592032 0.769944 -0.927279
229 1 13.216 6.54514 13.2925 -0.0886217 -1.06405 -1.10047
230 1 14.7888 8.20142 14.9689 2.71835 -0.309305 -0.15361
231 1 16.4771 9.89163 13.3445 1.41798 1.28714 -0.678677
232 1 1.50058 11.6121 14.8288 -0.122042 0.285539 0.31194
233 1 3.12628 10.0179 13.2255 0.505962 -1.16873 -0.351763
234 1 4.97241 11.5254 14.7262 2.21266 -1.85539 0.0717986
235 1 6.71182 9.95766 13.2275 -0.161962 1.00129 -2.15016
236 1 8.37684 11.6175 14.9219 -0.262855 -1.68144 -1.23621
237 1 9.94505 9.97114 13.0549 1.07854 -0.733727 1.97822
238 1 11.6681 11.365 14.843 -1.99511 0.542915 -0.0739625
239 1 13.3262 9.82507 13.2217 -1.01239 1.77288 -0.977149
240 1 14.8036 11.5993 14.9321 -0.0587807 -0.652296 -1.81695
241 1 16.4095 13.3719 13.2696 1.94155 -1.30069 0.36032
242 1 1.65663 15.0057 14.8922 1.07623 -0.810451 0.171396
243 1 3.22992 13.3202 13.2934 0.370981 -2.22003 -0.047447
244 1 4.89515 14.8753 14.9535 0.258612 0.033372 -1.36324
245 1 6.59143 13.27 13.2698 0.435531 -0.539523 0.759542
246 1 8.21374 14.8763 15.0404 0.907113 0.0864148 -1.31701
247 1 9.89825 13.2571 13.1774 -0.10254 0.0273476 -0.0118528
248 1 11.6402 14.9915 15.0091 1.21388 -0.0593927 -1.4317
249 1 13.211 13.2624 13.3221 1.41042 -1.00044 -0.883006
250 1 14.8203 14.9235 15.0396 -0.274801 -1.29084 -0.713084
