ITEM: TIMESTEP
980
ITEM: NUMBER OF ATOMS
250
ITEM: BOX BOUNDS pp pp pp
0.0000000000000000e+00 1.6520000000000000e+01
0.0000000000000000e+00 1.6520000000000000e+01
0.0000000000000000e+00 1.6520000000000000e+01
ITEM: ATOMS id type x y z vx vy vz
1 1 0.0024186 16.4495 0.11134 -0.0699768 -2.85999 0.318543
2 1 1.63982 1.59983 1.71797 -2.14682 0.664904 1.93062
3 1 3.41709 16.4405 0.0661965 -0.94371 -0.429912 0.202177
4 1 4.86711 1.63931 1.7388 -0.66899 0.773735 -0.804511
5 1 6.61003 16.4638 0.0426057 0.278206 1.47848 -1.38617
6 1 8.23192 1.62207 1.67655 -0.599746 1.91815 1.07067
7 1 9.96261 16.4653 16.4978 2.35647 1.66514 -2.04906
8 1 11.5323 1.57929 1.73359 -0.362035 -0.528559 -0.110745
9 1 13.2185 16.4006 0.0139346 -0.86987 1.07661 -0.888401
10 1 14.9324 1.73492 1.64232 -0.412348 -0.373777 -2.72264
11 1 0.0176013 3.24984 0.0723434 1.37911 1.45325 -0.643672
12 1 1.49938 4.96755 1.71051 -0.253667 -0.547312 -1.61916
13 1 3.21541 3.34566 0.0140428 -2.7639 -2.4088 -0.438696
14 1 4.87996 5.04768 1.55998 1.65037 -0.908443 -0.705997
15 1 6.54919 3.28517 16.5167 0.0858229 -1.49444 -0.598946
16 1 8.09755 4.86713 1.61241 -0.913206 0.389067 3.14878
17 1 9.94631 3.37299 0.129561 1.64827 0.0831371 0.891614
18 1 11.4443 4.79521 1.63551 -0.701714 -0.643665 -1.80434
19 1 13.1801 3.28002 0.0797425 0.732174 1.1022 2.20628
20 1 14.781 4.95843 1.62363 0.784132 0.905439 0.802807
21 1 16.4966 6.63241 0.074465 -1.94143 2.15296 0.190909
22 1 1.62036 8.24986 1.71577 -1.44409 1.96695 1.03652
23 1 3.20236 6.60795 16.5073 -0.493962 -0.823922 1.86869
24 1 5.01466 8.18239 1.50596 2.54406 1.34345 0.242654
25 1 6.54928 6.52656 16.4347 0.483805 -0.293504 -1.79218
26 1 8.29708 8.20623 1.41826 1.06761 -0.863165 -1.05066
27 1 9.91408 6.48521 16.4084 -0.126158 1.33129 -2.10531
28 1 11.456 8.18077 1.48702 -0.549161 -0.887218 -0.2209
29 1 13.207 6.56475 16.4989 0.983242 0.301824 1.2334
30 1 14.7966 8.31642 1.67528 -0.520249 -0.851524 -2.57023
31 1 0.01187 9.90475 16.5157 2.06527 0.659752 -0.570174
32 1 1.4758 11.483 1.65173 -2.97091 -0.360982 1.50378
33 1 3.28812 9.84123 16.4836 -1.8935 0.547698 3.53804
34 1 5.07656 11.3982 1.48721 -1.01296 -1.09132 1.06661
35 1 6.64075 9.82819 16.3275 0.153145 1.61227 -1.25163
36 1 8.16312 11.5659 1.64257 -0.878195 -1.55916 1.82967
37 1 9.97981 9.84929 16.4182 -0.583154 0.220461 0.00144741
38 1 11.4453 11.5304 1.79256 -0.919669 -1.4719 1.21344
39 1 13.173 9.85316 0.00885891 -0.772535 1.3381 -1.43987
40 1 14.8162 11.6157 1.61083 0.278115 1.53025 0.394756
41 1 16.4075 13.185 0.0323671 0.623542 -1.20103 -0.529455
42 1 1.62688 14.7895 1.68857 0.69835 -1.00813 0.0453417
43 1 3.25329 13.1782 16.4328 1.16691 -0.141268 1.1439
44 1 4.89315 14.7914 1.61999 1.20026 -0.481025 -2.57279
45 1 6.72497 13.2484 16.4687 0.0522873 0.168371 0.241157
46 1 8.16581 14.7314 1.65853 0.775427 -1.58799 -0.945699
47 1 9.93209 13.1293 0.0634184 0.534283 -0.414053 1.66367
48 1 11.5528 14.8511 1.68695 -1.85676 1.143 -1.19762
49 1 13.1018 13.1832 0.167914 0.693511 0.0568422 2.0802
50 1 14.8384 14.8609 1.69762 -0.0624857 0.296484 -0.630578
51 1 16.5188 0.047184 3.44134 0.760329 1.57919 -1.2806
52 1 1.65832 1.63136 5.00444 0.888758 2.26648 -0.192456
53 1 3.26194 16.5198 3.23847 1.18263 0.568661 0.687402
54 1 4.97501 1.62514 4.89343 -0.919879 1.54178 -0.919302
55 1 6.61411 16.4392 3.32435 0.537059 -0.500187 -0.221257
56 1 8.24683 1.57109 4.93716 2.12807 0.802885 0.998694
57 1 10.0279 16.3684 3.35632 0.556187 -1.16577 -0.461949
58 1 11.5167 1.60308 5.06544 0.0841283 -0.899438 0.120785
59 1 13.2086 0.0468539 3.33974 -0.241455 0.968565 -1.72095
60 1 14.9247 1.63322 4.95508 -0.470186 0.405043 0.602123
61 1 16.4254 3.2689 3.29721 -0.120447 -0.524781 -0.010574
62 1 1.52084 4.85973 4.90094 1.13326 -2.39743 -0.553085
63 1 3.16047 3.3618 3.24122 -1.81592 -0.583005 0.267046
64 1 4.8659 4.88216 4.89296 -0.333837 -0.174677 0.203023
65 1 6.57288 3.26064 3.34137 0.781505 -2.3997 0.867631
66 1 8.27256 4.91317 4.91042 1.47952 0.834429 0.0763401
67 1 9.8103 3.25086 3.36236 -0.00109094 -2.81872 1.33165
68 1 11.5083 4.87972 4.94787 -0.919862 -1.41579 0.214361
69 1 13.1063 3.18622 3.4503 -0.417957 -0.543123 0.0555494
70 1 14.7355 4.80312 4.9822 1.82226 0.393724 -0.797813
71 1 16.2387 6.64343 3.2926 -1.05166 0.239565 0.501306
72 1 1.76699 8.29595 4.89528 0.738582 0.75265 -2.22452
73 1 3.26372 6.52289 3.26044 -0.038308 -1.38568 0.196361
74 1 4.97185 8.20508 4.82481 -0.293524 0.29846 -0.228583
75 1 6.55351 6.57384 3.18783 -0.802149 1.13268 0.895189
76 1 8.18288 8.23213 4.72554 2.20882 -1.25948 0.722881
77 1 9.87309 6.50731 3.25205 -1.01114 -0.646731 0.779766
78 1 11.5688 8.21387 4.81045 -0.760877 0.618128 0.922489
79 1 13.105 6.52162 3.24307 -0.171125 0.867864 -0.443886
80 1 14.7573 8.25703 4.89416 -1.75892 -0.734291 0.377549
81 1 16.4888 9.80232 3.38385 0.284456 1.21084 0.393043
82 1 1.66346 11.4866 4.8457 -0.804845 -0.499637 0.00292729
83 1 3.27702 9.76072 3.11138 1.00376 -0.690921 0.989855
84 1 4.98813 11.4886 4.84139 -0.665619 -0.862859 -2.47975
85 1 6.57724 9.94252 3.15805 -0.0355474 -0.813972 -0.59296
86 1 8.20218 11.5636 4.80853 -1.05549 -0.56894 -1.59021
87 1 9.85297 9.88489 3.19675 -0.141122 0.268132 0.10366
88 1 11.4172 11.5281 4.93093 -0.331935 -1.71876 0.120595
89 1 13.1938 10.1099 3.24593 0.103503 0.205341 -0.673671
90 1 14.8626 11.5673 4.93637 0.525887 0.35053 -0.100038
91 1 16.4687 13.2446 3.48844 -0.828878 0.527664 0.297967
92 1 1.68273 14.9371 4.93485 2.36451 -0.609737 -0.676683
93 1 3.30674 13.1664 3.1853 2.27375 -0.367515 -0.190966
94 1 4.80397 14.8606 4.92358 -0.18458 0.304753 0.490151
95 1 6.4177 13.0878 3.30542 0.875947 -0.04285 1.44331
96 1 8.27057 14.7693 4.92253 -1.08186 2.24935 0.080694
97 1 9.86617 13.2001 3.30022 1.37268 1.21141 1.84497
98 1 11.6327 14.949 5.07604 -0.903702 2.21624 0.957549
99 1 13.0496 13.3127 3.31518 -1.64347 2.12807 0.439101
100 1 14.8449 14.8864 5.08562 0.378348 0.534369 0.295648
101 1 0.043934 0.0837156 6.73809 -0.162083 -1.07215 0.270556
102 1 1.70924 1.82418 8.36474 -1.06615 0.181857 0.207153
103 1 3.26564 16.4414 6.62022 1.00318 -0.00166337 0.22579
104 1 5.01018 1.62176 8.29914 -1.26452 0.792571 -2.14206
105 1 6.61882 16.4801 6.66087 1.24119 -0.238221 -0.0475454
106 1 8.29253 1.57366 8.36604 -1.2523 0.196877 -0.260476
107 1 9.90738 16.5112 6.64372 -0.503249 1.37262 -0.0526028
108 1 11.6045 1.59838 8.38886 1.03868 -0.69033 1.24457
109 1 13.337 16.4671 6.67516 0.599627 0.9029 0.646313
110 1 14.9147 1.63071 8.34389 1.33409 -1.83646 -0.811162
111 1 16.5033 3.33459 6.67816 0.610198 -0.38897 -0.538163
112 1 1.67144 4.89879 8.16355 -0.264938 -0.189528 -0.989136
113 1 3.27463 3.28596 6.59818 -1.51984 -1.58515 -0.168355
114 1 4.93984 4.92105 8.10685 -1.2386 0.0307177 -0.420843
115 1 6.6989 3.36548 6.52352 -0.760914 1.02541 0.692919
116 1 8.31245 5.03696 8.2602 0.184218 2.87311 0.863426
117 1 9.91116 3.26553 6.69611 1.19797 1.97232 -0.477981
118 1 11.4934 5.087 8.30725 -0.833558 2.20885 1.35652
119 1 13.202 3.22431 6.73069 0.115202 1.96039 1.20407
120 1 14.8312 5.00604 8.31238 0.955816 -1.05148 -0.637963
121 1 16.4289 6.58497 6.58278 -0.831626 -0.819114 -1.66672
122 1 1.72223 8.23045 8.31266 -0.444729 -0.916492 -0.466999
123 1 3.35505 6.55805 6.51338 -0.23352 -0.806157 -0.0201087
124 1 4.95132 8.40235 8.11127 1.33104 2.6078 -1.4451
125 1 6.58 6.63757 6.49815 -0.0191196 -1.42672 -0.370132
126 1 8.21775 8.31135 8.15617 -0.0877109 0.336912 1.06547
127 1 9.92204 6.7235 6.47179 0.660429 -0.486022 -0.772257
128 1 11.5798 8.30077 8.12193 1.05134 1.14908 0.180167
129 1 13.1351 6.52055 6.56656 0.195163 -1.64666 2.27469
130 1 14.9264 8.32877 8.29349 -0.450025 1.41754 -0.88181
131 1 0.0537437 9.89097 6.63307 0.558496 -0.00373811 -1.20144
132 1 1.5717 11.5268 8.26933 -0.875407 -0.0330584 -0.981036
133 1 3.28847 9.93583 6.50272 0.384859 0.30496 -0.495612
134 1 4.89305 11.6044 8.067 0.640066 0.622772 -0.154082
135 1 6.68602 9.85169 6.42599 0.980984 -0.51968 -0.00621498
136 1 8.14422 11.6525 8.08734 0.529836 1.67627 2.94944
137 1 9.89113 9.89362 6.55475 -2.07533 -2.54032 -1.14679
138 1 11.5469 11.6768 8.1812 1.2447 1.08769 0.636939
139 1 13.3151 9.93834 6.54316 1.22997 0.629887 2.268
140 1 15.0005 11.6454 8.20095 2.05331 0.795666 -0.921955
141 1 16.4958 13.2252 6.65276 -0.0374385 0.0116647 -0.937766
142 1 1.6278 14.9954 8.28271 0.41011 0.610338 -0.499369
143 1 3.25115 13.2305 6.67163 -1.21441 0.11813 -2.45643
144 1 4.9521 14.9634 8.29675 -0.382496 1.02602 0.43932
145 1 6.56241 13.21 6.6165 -0.0631402 -0.531206 -0.005778
146 1 8.19196 14.9097 8.37773 1.45418 -2.26648 2.66688
147 1 9.80412 13.2322 6.62539 -1.85985 -0.860646 -0.924005
148 1 11.6127 14.8493 8.30214 0.515573 0.272452 2.78104
149 1 13.2592 13.319 6.61386 -1.72178 -0.839676 -1.46982
150 1 14.9041 14.9005 8.42945 0.265289 -0.398705 -1.86881
151 1 16.5088 0.125812 10.0493 -0.741255 -0.682899 2.79896
152 1 1.79982 1.92696 11.6702 0.994629 1.49614 -1.03946
153 1 3.35883 0.171099 9.9532 -0.38306 0.0259259 0.0605765
154 1 4.99241 1.76352 11.6189 1.94372 -0.302596 0.217321
155 1 6.66594 0.03726 10.133 -0.0231619 -1.994 1.63022
156 1 8.41212 1.78869 11.6935 1.71569 1.63184 -0.475945
157 1 9.95714 0.0414006 10.0293 -2.935 -1.13891 0.270549
158 1 11.7266 1.63106 11.707 0.536459 2.25253 -0.508539
159 1 13.3104 0.0292462 10.081 -0.786739 -0.986402 -1.794
160 1 14.8825 1.79534 11.6698 0.474487 0.631847 0.730381
161 1 0.0607146 3.4456 9.95417 0.867327 1.76031 -0.637378
162 1 1.61834 5.09135 11.5381 -1.80174 0.914838 0.646723
163 1 3.42248 3.37333 9.82206 -0.717245 -0.374852 -1.30368
164 1 5.02013 4.9464 11.478 -1.24667 0.282715 -0.995192
165 1 6.68838 3.30594 9.81433 -1.11952 -0.558802 -0.296271
166 1 8.29753 4.94036 11.555 -0.527991 -1.13418 0.103945
167 1 10.1338 3.26602 9.9336 2.58544 0.484248 0.109681
168 1 11.5794 4.90834 11.519 -0.629439 0.238097 -1.12406
169 1 13.3213 3.2798 10.0154 0.148576 -0.587881 2.51351
170 1 14.9312 4.96678 11.5696 1.73377 0.343812 0.965788
171 1 0.076949 6.67597 9.93413 -0.836688 -2.32301 0.611192
172 1 1.66783 8.28707 11.5075 -1.62516 0.676035 1.59745
173 1 3.27307 6.57948 9.77802 0.823439 0.0885754 1.41009
174 1 5.01138 8.27802 11.4929 -0.600219 0.712622 0.857215
175 1 6.58393 6.68458 9.9302 -1.65196 -0.672303 0.310322
176 1 8.34581 8.24221 11.4401 1.53177 -1.07609 -1.76929
177 1 10.0489 6.6959 9.77954 0.76601 -0.421984 0.928184
178 1 11.5786 8.24015 11.5504 0.0412576 0.376669 -1.28099
179 1 13.2319 6.63352 9.83491 0.853519 2.12536 -2.78385
180 1 14.8755 8.2794 11.6094 -0.621099 -2.96634 1.65298
181 1 0.0765945 9.87287 9.91914 1.11106 -0.73328 1.44693
182 1 1.66425 11.5186 11.5052 1.26524 -1.37777 -2.56816
183 1 3.36098 9.98968 9.81981 -0.7793 2.67333 -2.23709
184 1 4.98269 11.5402 11.487 -1.84715 -1.55271 -1.20444
185 1 6.57067 9.92382 9.8142 0.766614 -1.15372 1.32713
186 1 8.26415 11.6124 11.4866 0.847909 0.558678 -1.38389
187 1 9.97361 9.89872 9.74271 -1.993 1.61811 -0.0264725
188 1 11.5156 11.5767 11.5407 -0.311927 0.128667 -0.124328
189 1 13.2814 9.88854 9.80537 -3.24646 -1.44435 -0.248165
190 1 14.9429 11.5782 11.6104 1.48698 -1.10348 0.568506
191 1 0.0340442 13.2076 10.0993 1.3953 0.0174995 1.07933
192 1 1.62532 14.8741 11.6187 1.52607 1.14124 0.230651
193 1 3.19618 13.2819 9.96592 -0.528044 0.671861 1.07321
194 1 4.96706 14.9187 11.6472 0.214166 1.82304 0.453579
195 1 6.53772 13.3448 9.98123 -1.0978 -0.305567 1.62814
196 1 8.30053 15.0376 11.7288 0.0931258 1.69849 -0.377619
197 1 9.88837 13.3742 9.8996 0.137303 -0.120442 -1.03335
198 1 11.5094 14.9169 11.662 0.153139 -0.895866 -0.828191
199 1 13.1541 13.2611 9.91527 -1.01511 -0.659578 -0.933154
200 1 14.9199 14.9032 11.7849 -2.11388 -1.706 0.329718
201 1 0.0326078 0.0561429 13.2871 0.59408 0.251743 0.931744
202 1 1.73645 1.64836 14.9503 -0.253663 0.725914 -1.90017
203 1 3.27423 0.0400467 13.2494 -0.989809 -0.749286 1.13419
204 1 4.97664 1.66393 14.8296 -1.61396 0.160373 -0.587217
205 1 6.71247 0.0594162 13.3514 0.167774 -0.08524 -0.120085
206 1 8.33566 1.6959 14.9985 0.519572 0.247225 2.80989
207 1 9.9454 0.148156 13.4221 -2.79178 1.58906 -0.326957
208 1 11.7333 1.62805 15.0312 0.197585 -1.14489 -0.330004
209 1 13.3014 0.0105934 13.3112 1.44767 0.0916619 -0.0600525
210 1 14.8768 1.60963 14.8901 -0.743899 -0.952501 -0.100839
211 1 0.0543966 3.33898 13.281 -1.30625 0.832414 0.258595
212 1 1.69997 5.04434 14.8556 0.390971 -2.36333 0.625845
213 1 3.37297 3.50241 13.1552 -0.323734 -0.121842 -1.55441
214 1 4.90539 4.93515 14.8571 -1.3714 0.559158 -0.785886
215 1 6.68585 3.29953 13.2751 0.192088 0.819603 -0.64312
216 1 8.20661 4.83855 14.8643 -2.97566 -0.456344 0.347714
217 1 10.0825 3.32355 13.3632 1.39016 -0.772692 0.514661
218 1 11.5894 4.94845 14.9453 -0.50266 0.169088 -0.312081
219 1 13.4457 3.31734 13.3496 1.67062 -0.0478312 -1.26496
220 1 14.8995 5.01163 14.9237 1.48423 0.759158 -0.378355
221 1 16.4761 6.68764 13.2842 -1.19682 1.80785 0.29663
222 1 1.71853 8.27221 14.8681 -0.472424 0.421332 0.669247
223 1 3.32107 6.6794 13.1483 -0.390456 -0.57462 0.426053
224 1 5.03076 8.20351 14.834 -1.74002 -0.212154 2.10229
225 1 6.61908 6.5792 13.1079 -0.481387 -1.57567 1.27443
226 1 8.33877 8.23335 14.7239 1.21521 -0.587331 1.35605
227 1 9.96353 6.52758 13.0694 -1.29838 -0.144747 1.83359
228 1 11.5564 8.24191 14.769 2.3625 1.13753 -1.20639
229 1 13.3035 6.58617 13.259 -0.427985 1.74815 -0.0753581
230 1 14.9308 8.2291 14.8573 1.78832 -3.04635 1.61762
231 1 0.169242 9.95609 13.2636 -0.367039 1.13016 1.20012
232 1 1.68069 11.5444 14.7883 2.04331 2.26434 0.4495
233 1 3.32094 9.96646 13.0963 2.96181 1.15652 -1.39452
234 1 4.90166 11.5936 14.6916 1.21668 0.917223 -1.63018
235 1 6.6869 9.85742 13.1883 0.981014 -2.23751 0.604975
236 1 8.25325 11.4941 14.8699 0.940551 -0.503005 -1.17307
237 1 9.93493 9.9188 13.1545 -1.58001 -1.22604 1.2987
238 1 11.5381 11.5543 14.7143 -3.17731 -0.36062 -1.1112
239 1 13.2284 9.8859 13.0912 0.578122 -0.67027 -0.623486
240 1 14.754 11.4706 14.9353 0.0322113 0.182572 -0.895848
241 1 0.0155997 13.2147 13.4044 1.78086 -1.67809 -1.36877
242 1 1.64932 14.9571 14.9815 -0.232706 -0.433065 -0.140616
243 1 3.20302 13.1774 13.1687 -0.386744 -1.18598 -0.869997
244 1 4.99502 14.881 14.8948 -0.238979 -0.175256 0.504003
245 1 6.55571 13.2839 13.2254 -0.0474376 0.0728517 0.344057
246 1 8.35263 14.832 15.0023 0.327498 -0.089193 0.0567215
247 1 9.90637 13.2745 13.2812 1.85752 -0.253066 -0.286022
248 1 11.5957 14.8269 14.8731 0.992174 -1.56206 -1.43505
249 1 13.2339 13.15 13.2508 -0.0750655 -1.73741 0.432118
250 1 14.8522 14.8737 14.9747 0.215145 0.965298 1.03578
