ITEM: TIMESTEP
490
ITEM: NUMBER OF ATOMS
250
ITEM: BOX BOUNDS pp pp pp
0.0000000000000000e+00 1.6520000000000000e+01
0.0000000000000000e+00 1.6520000000000000e+01
0.0000000000000000e+00 1.6520000000000000e+01
ITEM: ATOMS id type x y z vx vy vz
1 1 0.0280015 0.102114 0.19473 -0.618166 0.701508 -0.0117398
2 1 1.72951 1.77461 1.67688 0.424373 0.139156 -0.464567
3 1 3.2981 0.0629131 16.4764 1.12272 0.525156 0.369319
4 1 4.95301 1.58992 1.57429 -0.384773 -0.245062 1.07481
5 1 6.55041 0.00649915 0.0381454 -2.16754 1.03901 1.02178
6 1 8.31664 1.60833 1.63716 0.58391 0.198127 0.836261
7 1 9.89724 16.465 0.0802554 -0.274323 -0.503087 1.28731
8 1 11.5258 1.64296 1.60352 0.925986 -0.947133 1.33097
9 1 13.2482 0.060835 0.133564 0.326175 -1.83636 1.00399
10 1 14.8907 1.70979 1.77822 0.663336 1.8112 2.58744
11 1 0.0173131 3.33643 0.0925463 -0.232035 -0.566986 1.36527
12 1 1.75438 4.92303 1.59105 0.331837 -1.81742 0.45639
13 1 3.45133 3.23625 16.3803 0.0746326 2.29961 -0.716473
14 1 4.8811 4.90077 1.53699 0.10061 0.669709 -1.176
15 1 6.74336 3.24231 0.0892131 0.690634 -0.840034 -0.975851
16 1 8.3061 4.98961 1.70309 0.888625 -1.20959 -0.487564
17 1 9.83343 3.35301 0.0346376 0.755563 1.29387 0.49884
18 1 11.5042 4.95139 1.65943 -0.12763 0.602282 -0.218853
19 1 13.1973 3.28982 16.5154 -0.788317 0.408741 2.15648
20 1 14.7931 5.00497 1.81376 -1.77883 -0.107794 -0.741111
21 1 0.056722 6.47351 16.4131 0.0642494 0.156036 1.18957
22 1 1.67853 8.22973 1.53177 0.420881 1.9423 -2.67991
23 1 3.33576 6.55988 16.4196 -0.903044 -0.289708 -0.363429
24 1 4.84848 8.20261 1.51901 -1.48084 -0.231795 -0.0688537
25 1 6.61031 6.66237 0.00918522 0.58112 1.24831 -1.30307
26 1 8.16344 8.30813 1.74734 -0.418757 -2.05619 0.154904
27 1 9.94977 6.70348 0.135226 0.118417 -0.469529 1.62356
28 1 11.642 8.29438 1.6346 -0.983535 -1.27203 -1.19629
29 1 13.1734 6.51339 0.024246 -1.4546 -1.48335 -1.17771
30 1 15.0116 8.11893 1.56413 0.942824 -2.26915 -1.22684
31 1 0.03959 9.87514 16.4184 -0.878194 -0.904989 0.173139
32 1 1.5735 11.5797 1.67597 -1.63243 -0.0243287 0.730737
33 1 3.2938 9.79651 16.4462 -0.62248 -0.190897 0.071576
34 1 4.75254 11.5137 1.64406 0.851299 1.44112 -1.65248
35 1 6.50608 9.97816 16.5002 -0.626682 -0.593881 -0.748924
36 1 8.19837 11.5752 1.67541 0.862391 -1.94639 -1.31759
37 1 9.96935 9.94995 0.0961388 -0.723945 -2.66339 -1.65611
38 1 11.6432 11.5703 1.53065 -0.349107 0.39758 -1.08549
39 1 13.3386 9.84108 16.3859 0.0213038 -0.696088 0.0756511
40 1 14.9093 11.4229 1.52617 1.47628 0.800271 0.749618
41 1 16.4545 13.21 0.0281575 -2.67773 -0.892056 -1.44973
42 1 1.55875 14.8601 1.69068 0.327873 -1.44502 0.00510208
43 1 3.20901 13.2638 16.4944 0.732498 -0.0643112 -1.28223
44 1 4.75724 14.8567 1.62426 -2.42824 -1.26287 0.374242
45 1 6.36766 13.1359 0.0102524 -0.804229 0.353468 -1.52582
46 1 8.08668 14.8938 1.65052 0.443923 2.3059 -0.652356
47 1 9.95516 13.2564 16.4735 -2.06187 0.941174 1.04815
48 1 11.5828 14.8295 1.82186 0.549635 1.88001 0.730091
49 1 13.2808 13.1815 16.5089 -0.25035 0.359419 0.0225625
50 1 14.8525 14.7925 1.81413 1.98976 -0.944905 0.0835868
51 1 16.5053 16.438 3.45071 -1.45674 1.85113 0.340412
52 1 1.67169 1.59901 4.97608 0.256849 1.01658 -0.777171
53 1 3.2568 0.0204169 3.35905 -0.442387 -0.0761535 -0.488946
54 1 5.06068 1.67655 4.96848 0.0621726 0.268297 -0.378698
55 1 6.64736 16.401 3.3462 -0.706101 0.808068 1.2289
56 1 8.2178 1.63342 4.99637 -1.81094 -1.58495 -1.50983
57 1 9.81008 16.4294 3.34049 2.17275 -2.58391 0.873025
58 1 11.6005 1.65585 4.84961 -2.1812 -0.305048 -0.190043
59 1 13.1652 16.4678 3.36924 -1.71603 -3.09819 0.0595664
60 1 14.939 1.60946 4.98985 0.812076 0.485965 -1.52001
61 1 0.075064 3.39428 3.36675 -0.0232446 -0.421089 -1.08407
62 1 1.74077 5.04143 5.06029 0.329116 1.95905 1.84197
63 1 3.35237 3.39188 3.35153 -0.643803 0.525598 0.446665
64 1 4.91516 4.95662 4.93565 -0.324475 -2.11563 0.33175
65 1 6.63031 3.24204 3.25353 0.929546 -0.264478 -1.51592
66 1 8.32186 5.01717 4.92116 -0.889117 -1.45088 -2.1557
67 1 9.87408 3.26686 3.20917 -2.57337 -0.329862 -0.0284359
68 1 11.6351 5.04593 4.75579 1.77833 -0.227175 -1.08216
69 1 13.2879 3.29965 3.26325 0.383023 -1.89079 -1.00422
70 1 14.9326 4.99371 4.99485 -1.61327 0.0920616 2.30728
71 1 0.107962 6.58106 3.2639 -1.60399 -0.756636 -0.16645
72 1 1.68799 8.24675 4.94885 0.5746 -2.14802 -1.36065
73 1 3.41338 6.66512 3.24117 0.461562 -0.694984 -0.870561
74 1 4.87476 8.30836 4.96309 0.472871 0.511662 -2.48364
75 1 6.5702 6.64708 3.24848 -1.29169 -0.858195 -2.05643
76 1 8.14133 8.3047 4.97381 -1.04845 0.586681 0.144461
77 1 9.84522 6.74024 3.31396 -0.40816 2.35009 -1.27638
78 1 11.6258 8.18086 5.04429 0.639763 2.0406 -2.37685
79 1 13.2928 6.64915 3.37994 0.25655 -0.248567 -0.120559
80 1 15.0054 8.1718 5.08291 -1.41681 -0.0423978 -0.70167
81 1 16.4691 9.79557 3.21181 1.12561 -1.89737 -0.13996
82 1 1.5229 11.6619 5.02276 -1.06443 0.460387 -0.675406
83 1 3.17139 9.83421 3.27385 -1.60009 -0.437981 -1.38908
84 1 4.92097 11.5602 4.94067 -0.356456 -0.248899 -0.594284
85 1 6.55334 9.97739 3.30059 -1.80008 1.33947 -0.152872
86 1 8.22125 11.6219 4.94418 0.954068 -0.0365381 -1.27577
87 1 9.96347 9.90062 3.25196 0.47629 -2.43903 -0.481895
88 1 11.5859 11.4758 4.74025 -0.0894332 -1.8502 0.653437
89 1 13.423 9.79281 3.26706 1.45818 0.0720629 0.810831
90 1 14.7323 11.5133 4.99862 0.703695 -0.312552 0.0881909
91 1 16.4371 13.118 3.29475 -1.36049 -1.12665 -1.12232
92 1 1.6298 14.8432 5.04512 -0.455947 -2.58808 1.68775
93 1 3.0665 13.3129 3.33276 -0.926019 -1.08992 -0.424226
94 1 4.9117 14.8176 4.94024 -0.995931 -0.328483 -1.2067
95 1 6.3727 13.1806 3.28225 -0.934247 -0.431131 -0.310526
96 1 8.23249 14.8626 5.01921 -0.324251 0.471375 -0.322159
97 1 9.84125 13.1374 3.20864 -0.343187 -0.726832 -1.19781
98 1 11.4321 14.782 4.8613 1.14113 0.424865 -1.00732
99 1 13.2366 13.0765 3.27739 -0.127353 -0.381193 -0.363704
100 1 14.8338 14.7421 4.98346 -0.639765 -0.474983 -0.460447
101 1 0.0646405 0.0269423 6.75782 -2.63453 0.672994 1.80775
102 1 1.65763 1.64768 8.40096 0.200298 0.884025 2.05783
103 1 3.33483 0.0125181 6.63444 1.63293 -1.1166 0.752607
104 1 5.00431 1.78958 8.3099 0.143547 0.998574 -0.280638
105 1 6.55206 16.4797 6.62674 0.249931 -0.793403 -1.35562
106 1 8.32678 1.66776 8.14201 0.328837 1.01508 -1.0456
107 1 9.99769 16.4881 6.58388 0.992413 -0.297206 1.31566
108 1 11.4744 1.77088 8.11499 1.16566 0.855365 -0.311879
109 1 13.2548 16.4953 6.57792 0.516699 1.70328 -2.06819
110 1 14.9325 1.82981 8.32164 0.165876 1.0462 0.0953093
111 1 0.10059 3.31424 6.65818 -0.115507 -0.952446 -0.882966
112 1 1.71664 4.99839 8.36971 1.01508 1.63727 -0.410237
113 1 3.34887 3.28536 6.66398 0.22651 0.298382 -0.240012
114 1 4.93982 4.96188 8.27909 0.287417 -0.0414033 -0.729003
115 1 6.59406 3.41388 6.54886 -0.215257 2.02684 -0.58951
116 1 8.24618 4.90205 8.17333 0.504862 -1.78189 -0.231834
117 1 9.94226 3.29391 6.42982 -0.918109 0.0133636 0.252227
118 1 11.5756 4.91875 8.08329 -0.737956 -1.67077 -0.564405
119 1 13.2714 3.26713 6.44584 -0.375045 -0.888805 -0.442532
120 1 14.8108 4.95892 8.16626 -0.874921 -0.780579 1.84545
121 1 0.0509474 6.63343 6.65245 -0.636275 -0.127616 0.900141
122 1 1.7189 8.2675 8.22349 1.44174 -0.919261 1.03256
123 1 3.2394 6.65572 6.65562 -1.17059 2.69963 0.534775
124 1 5.07035 8.22114 8.23106 -0.0879901 -0.558103 1.61725
125 1 6.58555 6.62516 6.56822 -0.077497 -1.31887 -0.988783
126 1 8.40164 8.17503 8.24056 0.923623 0.394475 -0.32714
127 1 9.92023 6.5249 6.58335 1.35424 -0.583257 -1.20468
128 1 11.5573 8.23029 8.22611 -1.46916 -0.0469117 -2.02165
129 1 13.2 6.57942 6.5572 1.37244 -0.597997 -0.881754
130 1 14.8552 8.28639 8.24685 -0.239694 -0.140579 0.76249
131 1 16.4302 9.91772 6.66992 -1.10238 -1.9189 -0.725055
132 1 1.69657 11.6649 8.29521 1.10634 -0.729474 -0.132878
133 1 3.29629 9.94224 6.55901 -1.58193 1.48782 -0.149997
134 1 5.04688 11.5577 8.36722 -0.227691 -2.452 -0.0982181
135 1 6.68669 9.92389 6.68875 0.1129 0.427438 -1.74172
136 1 8.33765 11.5288 8.29028 -0.669177 0.725749 0.193498
137 1 9.98494 9.93014 6.6224 -0.54385 1.86172 -1.30118
138 1 11.607 11.4972 8.31026 1.17119 0.0704455 0.171973
139 1 13.1962 9.85013 6.64608 1.21284 -1.05739 0.280986
140 1 14.764 11.6096 8.34842 0.719471 0.688285 -0.233341
141 1 16.4106 13.244 6.64572 1.17412 1.98798 2.69585
142 1 1.67104 14.9749 8.33756 -0.302561 3.14845 -0.250047
143 1 3.20753 13.2164 6.64002 -1.46314 -0.537655 0.359169
144 1 4.94495 14.9025 8.23425 -1.81622 0.166065 0.649979
145 1 6.52786 13.1985 6.5884 0.196161 0.195457 -1.43228
146 1 8.22599 14.8332 8.24488 0.33619 -0.0396499 -1.35863
147 1 9.86188 13.1893 6.63788 -0.50635 1.22205 0.476516
148 1 11.5689 14.8259 8.22827 1.35162 0.41819 0.163475
149 1 13.1466 13.0614 6.6522 -0.136799 -0.0222406 -0.434073
150 1 14.7824 14.9068 8.17938 -0.3818 1.00035 1.3797
151 1 0.0300175 0.0182418 9.86311 0.429694 1.3135 1.52465
152 1 1.71115 1.52409 11.7491 1.01607 -0.153204 0.896683
153 1 3.3582 16.502 9.91642 -0.352095 0.714622 1.11312
154 1 5.07338 1.54841 11.5055 -0.054112 -0.929878 1.30578
155 1 6.71643 16.4179 9.73812 -0.106592 0.0702037 0.691305
156 1 8.2409 1.56426 11.5246 -0.411575 -0.454731 1.46714
157 1 9.82045 0.0787386 9.84522 1.54184 -0.0254297 -1.68493
158 1 11.5388 1.52542 11.4349 0.402724 1.88463 2.10674
159 1 13.2676 0.158599 9.85077 0.324365 1.49201 1.07956
160 1 14.8822 1.61363 11.6582 0.563851 0.431358 0.937688
161 1 16.429 3.2717 10.0515 0.206233 -1.37757 -1.32646
162 1 1.6518 4.9928 11.6287 -0.348522 0.697764 1.19587
163 1 3.35219 3.33423 9.99485 1.1947 1.05243 -1.08924
164 1 4.98355 5.05483 11.6148 0.964637 0.303758 0.532572
165 1 6.52388 3.34517 9.85081 -0.965718 2.34269 -1.44214
166 1 8.217 4.98803 11.5568 0.428561 0.181567 0.446922
167 1 9.7554 3.33824 9.79566 1.39597 0.546627 0.634775
168 1 11.3961 4.95205 11.532 -1.91185 0.301248 0.787356
169 1 13.0227 3.27142 9.96878 -0.535636 -0.0491597 0.000949611
170 1 14.6937 4.96335 11.5373 1.57592 0.713645 0.363847
171 1 16.4774 6.53905 9.87933 1.50026 1.005 -0.351102
172 1 1.67982 8.28277 11.4607 -2.04282 -0.351021 -0.0263613
173 1 3.33833 6.70094 9.96689 -0.67614 -2.4563 -0.610022
174 1 5.06537 8.34128 11.4277 -0.125101 -0.673288 -0.639634
175 1 6.66366 6.5632 9.81935 0.891626 0.773681 1.04785
176 1 8.28669 8.36742 11.6323 -0.879339 0.485668 -0.42188
177 1 9.87798 6.58932 9.99712 0.129879 -0.361707 -1.83926
178 1 11.5956 8.28886 11.7102 0.641425 -1.05297 -0.188535
179 1 13.0268 6.588 9.89846 1.39156 -0.276204 0.766615
180 1 14.8929 8.18518 11.5073 0.833645 2.02647 1.11148
181 1 16.4639 9.91735 9.97826 -1.27291 0.120297 0.857345
182 1 1.64552 11.6415 11.5572 0.986266 -0.557679 -0.350211
183 1 3.35641 9.90962 9.82181 0.651207 0.198407 -0.0723875
184 1 5.02301 11.5695 11.5505 -0.33098 0.242028 -0.783514
185 1 6.75291 9.9656 9.81531 0.486745 -0.163662 -1.0829
186 1 8.32249 11.5673 11.6069 -0.376767 -0.917513 2.82536
187 1 9.95076 9.97648 9.96137 0.582388 2.84096 1.44019
188 1 11.685 11.7299 11.6578 0.563099 1.07747 0.188179
189 1 13.1537 9.92527 10.0025 -0.40542 -1.52593 -2.48089
190 1 14.7628 11.6072 11.6155 -1.44105 -0.876532 0.293702
191 1 16.4606 13.2999 10.0041 -0.312292 0.448291 0.0249459
192 1 1.67239 14.9666 11.6418 -0.883186 2.08263 -0.194188
193 1 3.22969 13.2745 9.92786 0.0518635 1.24327 0.038478
194 1 4.98548 14.8691 11.5029 0.491645 2.17968 0.616886
195 1 6.74456 13.1906 9.93689 0.800086 1.66035 -0.839409
196 1 8.24124 14.9725 11.5026 -0.250569 -0.00106646 1.93952
197 1 9.95439 13.1643 9.973 1.21011 -0.461902 -0.629967
198 1 11.608 14.9021 11.5593 0.0659219 1.09416 0.73854
199 1 13.2555 13.2462 9.92318 -0.852523 0.754297 0.260799
200 1 14.8886 15.0072 11.6721 -0.744994 0.789449 0.751902
201 1 0.0262606 0.0511046 13.2992 1.09864 -0.762877 -0.0650925
202 1 1.60112 1.71048 14.9637 0.721099 3.43858 -0.407662
203 1 3.29875 16.4745 13.3042 -2.1318 0.776185 0.930518
204 1 5.11638 1.68593 14.8168 0.487383 -1.89005 0.405196
205 1 6.59116 16.4723 13.2216 2.13226 -0.943267 -1.83624
206 1 8.33867 1.57002 14.8651 0.608154 -0.527791 0.328759
207 1 10.0088 16.494 13.0815 0.848698 -0.608629 1.73343
208 1 11.5746 1.69026 14.931 -0.215154 -0.974048 1.86981
209 1 13.2209 0.120448 13.3255 0.709086 -0.251648 1.32734
210 1 14.8577 1.74434 15.0071 -1.11441 0.167549 1.99557
211 1 16.391 3.29225 13.2101 0.725261 -0.575241 -0.00479866
212 1 1.58325 4.90716 14.7348 0.860871 -1.17664 -0.405327
213 1 3.36888 3.17636 13.288 0.59596 1.6678 0.968587
214 1 5.03078 4.89052 14.7247 1.16764 0.0834825 0.795011
215 1 6.5892 3.28485 13.195 0.251311 0.45511 1.06136
216 1 8.27022 4.96937 14.937 -0.923984 1.34981 -0.898504
217 1 9.79753 3.22354 13.0622 0.198643 -0.0790769 1.19835
218 1 11.4253 4.90168 14.9514 0.775642 0.446958 -0.496525
219 1 13.0658 3.27917 13.2801 -0.349867 -0.541655 -0.13444
220 1 14.7596 4.90071 14.9334 0.083357 -0.517542 0.116707
221 1 16.4139 6.55303 13.1722 0.568908 -1.14013 -0.225876
222 1 1.71807 8.19513 14.7104 0.210462 -1.21672 -0.537558
223 1 3.32832 6.63528 13.1477 1.56406 -0.473815 -2.34479
224 1 5.06807 8.26689 14.8026 -0.521458 0.0227114 -1.53895
225 1 6.65233 6.64745 13.1471 2.25175 -0.670291 0.147774
226 1 8.29975 8.38771 14.9104 0.513439 2.10761 -0.298745
227 1 9.88195 6.5416 13.2269 0.761315 -1.47086 0.723274
228 1 11.5678 8.32108 14.9382 -0.813823 -1.36707 -0.0988046
229 1 13.0898 6.62075 13.2011 0.311246 -1.07106 0.137417
230 1 14.8826 8.15649 14.7413 -0.184354 0.175031 -0.642435
231 1 0.0126051 9.87875 13.0905 -1.61353 0.269829 -0.717382
232 1 1.62379 11.6061 14.8339 1.52588 0.358404 1.48837
233 1 3.39431 9.83998 13.1032 0.165561 -2.3109 0.560392
234 1 4.90073 11.5555 14.8216 2.20034 -0.767498 -0.949971
235 1 6.57717 9.93788 13.2025 -1.13307 1.05972 -0.51444
236 1 8.26004 11.5979 14.841 0.849902 -1.22617 0.0692137
237 1 10.1038 10.0178 13.2533 1.80999 0.0469624 -0.0320816
238 1 11.6433 11.5977 14.8883 0.646055 1.77445 1.76509
239 1 13.2108 9.88251 13.1997 0.500494 -0.293194 0.17595
240 1 14.9338 11.5538 14.7467 -0.376128 -2.42478 2.12774
241 1 0.0488287 13.3916 13.1931 0.488116 0.317403 0.43163
242 1 1.63224 14.917 14.9593 -1.87295 1.10762 2.1006
243 1 3.32157 13.2135 13.2569 -0.829059 0.983655 0.632591
244 1 4.9972 14.8778 14.9112 1.3833 0.402882 1.17497
245 1 6.58621 13.2491 13.1354 -0.353363 0.660096 1.3747
246 1 8.26365 14.8281 14.8171 -0.301067 -2.58334 2.43537
247 1 10.1001 13.2254 13.3151 1.74102 -0.0897342 1.08195
248 1 11.6276 14.905 14.9304 -1.05806 1.53939 -1.29559
249 1 13.3281 13.2699 13.3519 0.549901 1.46836 1.08624
250 1 15.0096 14.8597 14.9319 1.40179 3.06286 0.972507
