ITEM: TIMESTEP
620
ITEM: NUMBER OF ATOMS
250
ITEM: BOX BOUNDS pp pp pp
0.0000000000000000e+00 1.6520000000000000e+01
0.0000000000000000e+00 1.6520000000000000e+01
0.0000000000000000e+00 1.6520000000000000e+01
ITEM: ATOMS id type x y z vx vy vz
1 1 16.4724 16.4902 16.5019 0.935616 0.465128 0.501603
2 1 1.72949 1.6214 1.63991 0.686368 -1.4958 -0.734245
3 1 3.21441 16.4689 0.0252535 0.820796 -0.419003 -1.80263
4 1 4.94304 1.61435 1.65417 -0.81548 -0.504269 2.10665
5 1 6.59875 0.0499884 16.4418 0.696655 -0.130924 1.48543
6 1 8.17273 1.67687 1.59716 0.253895 -2.14666 0.453729
7 1 9.926 16.5015 16.5033 -0.0805754 -0.614145 2.89137
8 1 11.636 1.74136 1.64463 -0.973242 1.14156 -2.64287
9 1 13.1901 16.5074 16.4757 -0.172042 0.0549377 2.03654
10 1 14.8476 1.72098 1.57281 0.132196 -1.81187 -0.539672
11 1 0.00689792 3.20826 16.4704 -0.0888056 0.326828 1.01137
12 1 1.62625 4.95068 1.60372 0.450149 -0.394906 2.27904
13 1 3.41141 3.32114 16.5169 -0.238505 -0.888666 -0.111396
14 1 4.99924 4.95273 1.71438 -1.23027 1.61223 -0.16996
15 1 6.57714 3.37055 0.0608815 -0.888071 -0.22097 0.00144767
16 1 8.32347 4.9897 1.65643 -0.222415 0.381615 -0.249297
17 1 9.90628 3.34531 16.497 -2.53307 -0.372597 -0.914955
18 1 11.606 4.97177 1.59118 -1.17041 -1.65115 0.287822
19 1 13.2233 3.25644 16.5192 1.81573 -1.5646 -2.37835
20 1 14.9729 4.94859 1.59949 0.453425 0.638472 0.520898
21 1 16.5035 6.61831 16.466 0.964259 0.639328 1.5214
22 1 1.64532 8.25114 1.63917 0.303279 1.36129 -2.14587
23 1 3.36016 6.55706 0.0491432 -0.870049 1.19106 -2.40933
24 1 5.00216 8.29824 1.69477 -0.0776833 -1.04267 -2.33418
25 1 6.53708 6.63773 16.4742 -0.726844 -0.335044 -1.94745
26 1 8.30263 8.27609 1.5849 -0.373695 1.95011 -1.33693
27 1 9.96253 6.63758 0.00926047 -1.06832 -1.1431 1.88913
28 1 11.6777 8.31036 1.67558 0.231955 1.74037 -1.8051
29 1 13.3241 6.66902 0.0452482 -1.54795 0.462661 -0.983177
30 1 14.8695 8.22876 1.59033 0.67899 0.704811 1.22666
31 1 0.0100539 9.85297 16.4588 -0.977004 1.68801 -0.114773
32 1 1.72421 11.5729 1.66063 -0.742441 1.18896 0.474752
33 1 3.24382 9.88573 0.0584266 1.3387 -0.176926 -1.88953
34 1 4.90822 11.5995 1.72947 -1.33014 -1.07343 -0.061018
35 1 6.50275 9.97453 0.0940158 0.992755 0.0726505 -0.324368
36 1 8.27021 11.6468 1.71686 1.40077 -0.942034 -0.32961
37 1 9.84639 9.93019 0.0653795 -0.535922 1.6624 0.106766
38 1 11.6436 11.6063 1.63084 1.89784 -0.50758 1.11007
39 1 13.2389 9.87923 0.138704 -0.444058 0.38335 0.359368
40 1 14.9221 11.5027 1.59259 -0.418288 -1.49669 0.0959392
41 1 0.0352015 13.2953 16.4314 0.461519 -0.86222 -1.06037
42 1 1.61216 14.9881 1.68782 0.302506 1.21876 0.922665
43 1 3.23492 13.2351 16.4952 -1.18558 -0.0807951 -1.2063
44 1 5.01358 14.9014 1.72434 -1.63183 -0.934494 -0.317966
45 1 6.61764 13.3533 0.0242949 -1.57883 -1.38081 -0.0253829
46 1 8.31716 14.8491 1.52809 -0.926988 -2.10805 1.16284
47 1 9.95074 13.2483 16.4769 1.03656 0.00161228 2.1132
48 1 11.6525 14.8862 1.60759 -0.494018 -1.4353 2.47004
49 1 13.2179 13.2102 16.4933 -1.51674 -0.938732 0.0644321
50 1 14.978 14.9981 1.57132 -0.175974 -0.963732 1.59506
51 1 16.4696 0.060502 3.21576 0.183317 0.994035 2.56998
52 1 1.6974 1.7017 4.91543 -0.407384 -0.963908 1.23544
53 1 3.2953 0.128156 3.29535 -1.80405 -0.82362 0.612587
54 1 4.83302 1.68906 4.9478 0.998675 0.261738 0.243498
55 1 6.66861 0.0446058 3.24293 0.278987 -2.33449 -0.615849
56 1 8.24064 1.74918 4.85161 -0.486924 -1.38101 1.64807
57 1 9.90149 0.107874 3.22241 0.602562 0.144182 1.11313
58 1 11.6269 1.83565 4.84134 -0.994646 -0.816562 0.480523
59 1 13.2018 0.0382477 3.19772 1.04917 0.615316 2.63037
60 1 14.8052 1.62609 4.90447 -0.0103644 -0.547629 1.7684
61 1 16.4629 3.42353 3.26394 -0.717696 0.267914 0.706163
62 1 1.64939 4.92306 4.91018 0.448645 0.529132 0.446142
63 1 3.36791 3.41554 3.31476 -0.43533 -0.639521 0.728686
64 1 5.10772 4.98521 4.96532 -1.33124 -0.102581 1.40834
65 1 6.52846 3.38643 3.24236 -1.09206 0.293933 0.390064
66 1 8.31631 4.96773 4.99994 -1.02994 2.71919 -0.293616
67 1 10.0022 3.42262 3.35417 -1.7877 0.122096 0.264224
68 1 11.5871 4.99219 4.97104 -0.879185 -0.353373 -0.14495
69 1 13.2159 3.42121 3.2978 -0.27238 -1.06112 0.678931
70 1 14.9483 5.01894 4.92163 -1.37621 -0.277427 0.799975
71 1 0.080042 6.57771 3.18134 -0.580559 -0.111883 0.713604
72 1 1.644 8.29864 4.91283 -0.0713439 -0.569156 0.716144
73 1 3.31849 6.52049 3.39131 -1.31878 1.12433 -0.518357
74 1 4.88849 8.22094 5.01293 0.994789 0.806496 -0.215468
75 1 6.71471 6.56712 3.24848 0.0524914 0.828942 -0.833625
76 1 8.27344 8.24043 4.93072 -0.887319 0.535618 1.08122
77 1 9.93279 6.49252 3.30181 -2.3459 0.721496 -0.279524
78 1 11.5339 8.08781 4.89491 -1.75654 -0.988574 1.32634
79 1 13.2768 6.6269 3.26616 -1.21689 -1.68184 1.47379
80 1 14.9234 8.3662 4.88739 0.0131727 0.0100571 0.0658603
81 1 0.0175016 9.90569 3.29976 -0.242293 -1.83078 1.21038
82 1 1.64469 11.4792 4.96637 -0.348069 0.570465 1.56314
83 1 3.25158 9.94453 3.35689 1.17926 -2.78395 1.27646
84 1 4.92519 11.618 5.00633 -0.543801 -2.2054 1.09172
85 1 6.53974 9.93073 3.29857 1.04865 2.11821 -0.597801
86 1 8.3109 11.5116 4.99799 -0.477351 0.156025 -1.20397
87 1 10.0246 9.88328 3.30611 0.295187 0.661342 -2.53876
88 1 11.6269 11.6347 5.02932 1.232 0.647054 -0.776609
89 1 13.2713 9.85774 3.21727 1.15253 -0.333345 -0.356121
90 1 14.8436 11.5293 4.88133 0.334705 0.019889 1.55837
91 1 0.0840126 13.1455 3.18884 0.467339 0.286597 0.331973
92 1 1.59948 14.9171 4.859 -1.09204 1.18394 -0.165745
93 1 3.32183 13.298 3.29013 1.07385 -0.59411 1.28931
94 1 4.97465 14.9329 4.94569 -1.35347 0.382455 0.149819
95 1 6.63387 13.3084 3.32134 0.658342 -1.83792 -0.678381
96 1 8.3244 14.9354 4.81384 -1.20938 -2.35448 -0.031882
97 1 9.88103 13.1206 3.35709 -0.731769 0.0529822 0.344172
98 1 11.6299 14.8558 4.92953 0.0721615 -0.777635 0.107048
99 1 13.3482 13.1621 3.27599 -0.299789 -0.950867 -0.0578588
100 1 14.9728 14.9034 4.82149 1.96055 -0.474133 1.29327
101 1 16.4698 16.4787 6.4409 1.68551 0.583599 1.10508
102 1 1.66914 1.67048 8.1985 0.868862 1.31322 -0.119189
103 1 3.28512 16.5144 6.5823 -0.862361 1.33307 -0.563157
104 1 4.91706 1.55003 8.30209 1.41473 -0.689104 -1.08552
105 1 6.57285 0.12836 6.5364 0.305393 -0.365988 0.684927
106 1 8.16343 1.54951 8.22216 0.816269 -1.56203 -0.103201
107 1 9.9246 0.0598887 6.4336 1.50844 0.0757127 -0.374947
108 1 11.508 1.60724 8.11542 -0.417692 -1.22744 1.67687
109 1 13.1813 16.5168 6.57744 -0.552461 -0.441811 0.172804
110 1 14.7241 1.68796 8.24111 0.981504 0.289504 1.01745
111 1 0.0152083 3.28422 6.51374 0.581383 0.511 0.082749
112 1 1.5871 4.94706 8.40033 -1.16656 -1.36516 -0.910833
113 1 3.31761 3.23587 6.6467 -1.38212 -0.213611 0.831481
114 1 5.09929 4.93873 8.28462 0.115697 0.261492 -1.16902
115 1 6.53165 3.30248 6.60244 0.211448 -1.39079 -0.523033
116 1 8.16089 4.87273 8.17977 -0.114172 1.44201 -0.116504
117 1 9.9074 3.27843 6.51545 0.930058 0.501837 -0.526657
118 1 11.5945 5.03412 8.14907 -0.604259 0.406226 -0.827224
119 1 13.2405 3.31819 6.59269 -0.531236 0.0100505 -0.834698
120 1 14.8802 5.01338 8.28782 -1.58315 -1.17424 0.59709
121 1 0.0539466 6.65323 6.4967 0.0526857 0.053813 1.59689
122 1 1.58122 8.18653 8.3375 0.540008 -0.104548 -0.252539
123 1 3.29386 6.54155 6.70146 1.49452 0.961879 -0.0962194
124 1 4.9698 8.23899 8.34957 -1.34047 0.554422 -0.535415
125 1 6.52228 6.68812 6.49809 1.65685 0.0578104 -0.363764
126 1 8.2373 8.18212 8.35855 0.467662 0.882069 -1.08975
127 1 9.84883 6.68327 6.73721 -1.02719 0.0179568 0.422215
128 1 11.5934 8.19487 8.33485 -0.520885 0.19725 -1.29092
129 1 13.2866 6.6324 6.53808 -0.739814 1.98523 -0.522767
130 1 14.7907 8.28299 8.3515 1.2347 -0.105955 0.478396
131 1 16.4531 9.88234 6.64199 0.433215 0.234347 0.383005
132 1 1.6551 11.3927 8.24059 -2.4269 0.485792 3.23561
133 1 3.32126 9.95304 6.63062 -0.700322 0.343857 1.43006
134 1 4.99089 11.556 8.22257 -0.756963 0.302839 0.88959
135 1 6.5857 9.8705 6.6014 -1.08382 0.32381 -0.482595
136 1 8.28284 11.4813 8.29365 1.1092 0.0872584 -1.91259
137 1 9.97211 9.78005 6.53499 0.760757 0.754032 -0.382106
138 1 11.6305 11.4087 8.16558 2.35334 2.10196 -1.51814
139 1 13.2187 9.9086 6.6272 0.688945 -0.729212 0.0325127
140 1 14.9382 11.4891 8.35497 -1.03269 1.06118 -0.00523454
141 1 16.4511 13.1612 6.55794 0.79938 -1.32695 1.06212
142 1 1.60138 14.814 8.26443 0.110328 -0.73479 -2.43467
143 1 3.4095 13.2204 6.66238 0.855025 -0.112936 1.50461
144 1 4.97948 14.8753 8.20168 -1.99863 -2.34197 1.36907
145 1 6.65506 13.2745 6.66387 -2.50795 -0.559735 0.0863118
146 1 8.28912 14.886 8.28855 -0.740211 -0.182651 -0.0812708
147 1 9.95559 13.2409 6.64809 0.317233 0.42915 -1.14996
148 1 11.5338 14.9385 8.18523 0.786283 -1.51701 0.960625
149 1 13.1516 13.2569 6.60273 0.475307 0.592226 -0.584992
150 1 14.8482 14.8838 8.24869 0.22528 -1.86835 0.0194098
151 1 0.00589501 16.4848 9.92816 -0.604825 1.32498 0.251811
152 1 1.70407 1.74678 11.5512 0.7454 -0.836667 -1.55061
153 1 3.2636 16.4807 10.0141 0.290714 0.459386 -1.27103
154 1 4.91145 1.68007 11.5595 0.982315 0.612664 -2.23977
155 1 6.58061 0.0160783 9.91556 2.86864 0.230461 -0.757017
156 1 8.21425 1.65569 11.6307 0.678815 -1.76063 -0.119894
157 1 9.93824 0.00895241 9.86619 -1.63107 -1.0327 2.43449
158 1 11.5178 1.66076 11.4672 -0.00811871 -0.621292 -0.444529
159 1 13.1061 16.4903 9.91079 0.723205 0.896725 -0.0992044
160 1 14.8796 1.68061 11.608 -1.00818 0.700116 0.26571
161 1 16.4971 3.23012 9.7492 -1.07037 2.48231 1.37731
162 1 1.68509 4.8214 11.5466 -0.129802 1.40159 0.848196
163 1 3.26627 3.23295 9.86574 2.76939 0.291861 0.248953
164 1 4.88103 4.83954 11.5783 -0.0507405 -0.737878 -0.16154
165 1 6.66619 3.20119 9.95616 2.41173 0.381553 -0.980865
166 1 8.2679 4.9359 11.5306 -0.109929 0.365446 -1.08128
167 1 9.88339 3.41696 9.80855 -1.28585 -2.99159 0.537248
168 1 11.5356 4.96176 11.5513 -0.248449 1.52249 -2.98761
169 1 13.1636 3.25116 9.85979 -0.430137 0.83006 -1.71474
170 1 14.8318 4.81081 11.5677 -1.06263 -0.462497 -0.363341
171 1 16.396 6.54347 9.94741 2.30779 -0.414553 -1.1979
172 1 1.62196 8.28173 11.6781 -0.653428 -0.909232 -0.519328
173 1 3.357 6.57847 10.0338 1.76491 -0.389903 0.559513
174 1 4.93496 8.22373 11.6792 1.25037 2.82814 -0.341179
175 1 6.65776 6.56912 10.0343 1.21592 0.832418 1.46886
176 1 8.21445 8.17996 11.7212 0.609968 -1.26234 -0.922145
177 1 9.96088 6.65742 9.99537 0.705557 1.88483 -0.355773
178 1 11.4753 8.3214 11.6699 -0.588053 -0.992271 -0.217597
179 1 13.2283 6.53349 9.95642 0.576281 0.664476 0.904503
180 1 14.7852 8.16965 11.5783 0.388821 -1.5936 0.353523
181 1 0.0537085 9.84908 9.91085 0.660983 -0.369535 0.219239
182 1 1.58167 11.594 11.5347 -0.650264 -0.588497 0.968039
183 1 3.25728 9.96522 9.92321 0.413486 0.972598 1.18372
184 1 5.01344 11.5965 11.7095 -0.379083 1.07187 -1.56977
185 1 6.5878 9.88942 10.0349 0.195448 1.20477 -1.97548
186 1 8.39302 11.5155 11.622 -1.96523 0.11989 -0.990237
187 1 9.93684 9.78886 9.90333 0.406438 1.20319 -1.00854
188 1 11.4561 11.5812 11.6066 0.464995 0.808186 -1.03348
189 1 13.0847 9.91362 9.98437 1.20107 0.783171 0.237378
190 1 14.8348 11.6218 11.6485 -0.231413 0.747174 -0.904584
191 1 16.4613 13.1522 9.81411 -0.192785 0.774745 2.92836
192 1 1.61824 14.7954 11.5631 -0.217637 -0.331375 -1.82988
193 1 3.38291 13.2375 9.88638 -3.00425 -0.54073 2.70955
194 1 4.88726 14.6919 11.5764 0.921643 0.921174 -0.324751
195 1 6.64744 13.1492 9.89578 1.6678 1.93428 0.604524
196 1 8.28281 14.7857 11.5766 1.47237 1.26775 1.87576
197 1 10.0624 13.2088 9.83756 -4.09048 0.5304 -2.20944
198 1 11.5338 14.8664 11.5734 0.547798 1.32479 -0.548115
199 1 13.3095 13.3355 9.89712 -0.155881 -0.414993 -0.918356
200 1 14.8956 14.9444 11.5415 -2.85187 1.53211 0.374644
201 1 16.4585 0.0703707 13.2304 1.56534 -0.99217 -0.198754
202 1 1.7025 1.56317 14.9918 -0.114848 0.150936 -1.26036
203 1 3.2866 16.4996 13.2416 2.78539 0.27916 0.4732
204 1 4.90752 1.59824 14.8605 1.76088 1.33926 1.37815
205 1 6.45299 16.5022 13.2229 1.26967 1.24404 0.907836
206 1 8.27391 1.61744 14.8761 -0.203497 0.890907 0.853578
207 1 9.89255 16.4532 13.1283 1.35313 0.134991 1.15295
208 1 11.4211 1.69145 14.8696 -0.116482 -0.311669 2.98148
209 1 13.2334 16.4823 13.2011 -0.0174604 1.72526 0.539618
210 1 14.8072 1.69951 14.8586 0.535983 1.39952 0.164367
211 1 0.011522 3.31997 13.2696 0.240404 0.833533 -0.888679
212 1 1.59881 4.92122 14.9847 0.520405 0.772837 -0.689453
213 1 3.29638 3.2664 13.1781 1.74668 0.104151 -1.48835
214 1 4.98444 4.89828 14.8906 -0.0202776 -0.636659 -0.260248
215 1 6.59134 3.32386 13.2335 -0.820936 1.16896 0.938781
216 1 8.22459 5.05256 14.9459 0.186274 -1.60749 0.075686
217 1 9.87973 3.29893 13.2655 -0.749703 0.330043 -0.325932
218 1 11.5563 5.00846 14.9723 1.17841 -2.25058 -0.322757
219 1 13.1541 3.32029 13.3022 0.777578 -2.24168 -0.133813
220 1 14.8575 4.94286 14.8824 1.39666 1.08361 0.0801698
221 1 16.4295 6.49564 13.2569 1.6496 -0.955758 0.218268
222 1 1.6799 8.25172 14.8799 -1.35034 -0.414411 -1.49097
223 1 3.2536 6.5444 13.25 3.31025 1.63185 -2.48925
224 1 4.90745 8.22864 14.8519 1.12746 -0.687942 -0.851608
225 1 6.6763 6.52436 13.2654 1.555 -0.022514 -1.44917
226 1 8.22562 8.23787 14.8931 0.521012 -0.0889705 -2.2801
227 1 9.94634 6.59527 13.2512 0.647625 1.31062 -1.04082
228 1 11.597 8.28143 14.8975 -0.0625634 1.60399 -0.127639
229 1 13.161 6.57834 13.2358 0.314973 -0.660815 1.39725
230 1 14.8117 8.24249 14.9192 0.00956222 -1.18538 -1.64639
231 1 16.4624 9.90653 13.2594 1.88873 -0.202259 -1.25589
232 1 1.60653 11.5424 14.9361 -0.425686 1.27705 -0.263577
233 1 3.22413 9.93437 13.2741 -0.675144 1.27037 1.24837
234 1 4.92453 11.6606 14.9403 0.565359 -1.64933 -1.27693
235 1 6.61324 9.92558 13.3601 -1.28283 1.8869 -1.4517
236 1 8.16512 11.5418 14.909 1.61967 0.635393 -0.375794
237 1 9.84065 9.86501 13.3334 -0.196244 -1.9389 -1.51263
238 1 11.6416 11.5163 14.9659 -1.12989 -0.884819 -0.208054
239 1 13.1928 9.94474 13.2528 -0.436802 0.767386 -1.18469
240 1 14.9788 11.571 14.9031 0.331091 -0.0770403 -0.486822
241 1 0.0383403 13.2492 13.2221 0.107578 1.1521 -1.74075
242 1 1.67325 14.9175 14.8306 -0.144814 0.157544 0.186171
243 1 3.2782 13.1353 13.2382 -1.84679 0.280411 -0.152086
244 1 4.89749 14.895 14.838 -0.90187 -0.877523 -1.7339
245 1 6.69212 13.2847 13.1727 -1.10038 -0.0704195 -1.26371
246 1 8.3171 14.8744 14.8237 -0.470957 0.760012 1.58537
247 1 9.89841 13.257 13.2126 0.297279 0.548727 -0.499947
248 1 11.6146 14.9371 14.8222 -1.06262 -2.35472 0.422917
249 1 13.2967 13.2524 13.269 -0.685237 -0.915565 1.92242
250 1 14.815 14.9462 14.8999 -0.572832 -1.01567 -0.533288
