ITEM: TIMESTEP
60
ITEM: NUMBER OF ATOMS
250
ITEM: BOX BOUNDS pp pp pp
0.0000000000000000e+00 1.6520000000000000e+01
0.0000000000000000e+00 1.6520000000000000e+01
0.0000000000000000e+00 1.6520000000000000e+01
ITEM: ATOMS id type x y z vx vy vz
1 1 0.123846 0.103422 0.0912576 1.97185 -1.81058 -0.701449
2 1 1.69039 1.68912 1.73793 -0.703945 -1.34361 0.0644232
3 1 3.26161 0.000273784 0.136439 -0.586495 -0.525695 0.606733
4 1 5.00336 1.57416 1.60608 -0.717778 -0.204317 -1.49888
5 1 6.56868 0.00375906 0.140149 -1.15121 0.391588 1.06011
6 1 8.16471 1.59171 1.68361 -0.108455 1.28782 -1.52886
7 1 9.85493 0.0257928 0.106042 -0.387786 0.329102 0.0748365
8 1 11.5384 1.62764 1.83675 -0.0611055 -0.109176 -0.70537
9 1 13.3017 0.0267 0.123207 1.96474 -0.775579 -2.28596
10 1 14.9751 1.66062 1.74599 0.192081 0.1403 -0.757663
11 1 16.4844 3.29604 16.485 -0.0441087 -0.693842 1.54721
12 1 1.64811 4.93821 1.61115 -2.28633 1.49913 -0.341039
13 1 3.37902 3.32544 0.00318381 0.060565 1.63175 0.444372
14 1 4.98263 5.03925 1.52689 -2.63433 0.285845 -1.39349
15 1 6.64808 3.298 16.4326 -1.54129 -0.354091 -0.479583
16 1 8.16732 5.03161 1.6675 -0.703254 -0.812799 -1.39909
17 1 9.92983 3.1788 0.0729078 0.536595 -0.491479 -0.648601
18 1 11.4353 4.99455 1.64574 -1.7827 0.263038 -0.728724
19 1 13.1613 3.26388 0.163373 0.38004 -0.511911 -1.80382
20 1 14.9844 4.98498 1.67659 -1.43186 -1.07595 0.492363
21 1 0.124272 6.46968 16.3907 0.276384 0.525056 2.78989
22 1 1.67671 8.20112 1.49454 -0.366533 0.997807 0.380401
23 1 3.33451 6.56154 16.4729 1.14309 1.11028 2.92036
24 1 4.85429 8.30645 1.59307 0.649758 0.93361 1.5786
25 1 6.488 6.67609 16.4193 -1.63368 -0.761217 0.672909
26 1 8.08194 8.3064 1.64118 -0.849015 -1.66447 1.79103
27 1 9.87218 6.70322 0.00586899 1.05879 1.14902 -1.35487
28 1 11.6036 8.27058 1.57343 0.260668 1.18446 1.4791
29 1 13.1733 6.54813 16.4037 0.978093 0.705591 -0.452611
30 1 14.9298 8.16072 1.60033 -2.18335 0.209236 0.287167
31 1 0.0128798 9.83101 16.3713 0.665939 2.41302 0.619633
32 1 1.62938 11.4241 1.5465 0.92291 0.30296 -0.0793361
33 1 3.26845 9.86811 16.2873 1.66871 2.18901 1.73192
34 1 4.90738 11.5516 1.62825 2.96314 -0.00810787 -0.393962
35 1 6.55712 10.0266 16.4967 1.83497 0.130766 0.529512
36 1 8.11656 11.5875 1.61127 0.995803 -5.93618e-05 -0.227324
37 1 9.92688 9.97037 0.00346551 1.50578 -3.24871 1.00874
38 1 11.5505 11.4552 1.58585 -1.83573 -0.57353 0.390823
39 1 13.2927 9.88355 16.5004 0.243165 2.7311 -0.2505
40 1 14.8107 11.4956 1.68254 -2.83783 0.751542 0.856158
41 1 16.5059 13.2516 0.0204556 -0.338499 1.27621 -0.655609
42 1 1.6437 14.9283 1.74365 0.567162 -0.881556 1.08285
43 1 3.17643 13.1314 0.0269665 1.89573 -0.0115219 -1.17788
44 1 4.81645 14.9013 1.71956 0.495301 1.6066 0.475472
45 1 6.60091 13.1325 0.0397003 1.8099 -1.08933 0.969233
46 1 8.22524 14.7537 1.69015 1.79585 1.07143 -0.152291
47 1 9.88636 13.1914 0.0866279 0.966881 -0.151834 1.12395
48 1 11.4622 14.7078 1.73119 -0.849006 -0.28255 -0.133754
49 1 13.2347 13.1826 0.0207202 -1.78465 -0.0696464 0.261721
50 1 14.8761 14.8634 1.6938 2.38124 -1.75245 -0.710214
51 1 0.0876969 0.0644164 3.4745 1.41932 0.535295 0.240443
52 1 1.68185 1.69859 5.01743 1.30144 -0.24919 -1.40399
53 1 3.23116 16.3686 3.43155 0.274264 0.0119455 -1.56543
54 1 4.85298 1.63341 5.03862 -0.10697 -0.501975 0.536014
55 1 6.54291 16.4991 3.31902 0.782946 1.01669 1.52105
56 1 8.23166 1.71111 4.94678 0.136641 1.35363 1.26578
57 1 9.83795 16.3239 3.27996 0.984071 0.975347 1.17198
58 1 11.5052 1.62819 5.02441 0.387748 -0.268393 0.982094
59 1 13.2792 0.00444793 3.33057 -0.988945 -0.772481 -1.04875
60 1 14.8683 1.65718 5.00981 -1.21074 -1.59369 -0.821018
61 1 16.5033 3.34648 3.3775 -1.43374 0.761988 0.750328
62 1 1.65805 5.03086 5.01407 -2.52048 0.336355 -0.461316
63 1 3.35834 3.42755 3.33137 0.455794 -0.0321554 0.0778349
64 1 4.94354 5.05766 4.94732 -0.352851 0.408117 -0.891571
65 1 6.53947 3.30577 3.23957 -1.16734 -0.677387 0.432669
66 1 8.12236 5.00025 4.82588 -0.954647 -3.23283 1.38857
67 1 9.87112 3.31741 3.32834 0.933648 1.24358 0.909729
68 1 11.5199 5.0839 4.90226 -0.897817 -0.109522 1.89812
69 1 13.1284 3.41973 3.32215 -1.04217 -1.07295 -1.63005
70 1 14.8877 4.93705 4.98808 -2.90786 0.82199 0.400719
71 1 0.0875333 6.51854 3.36815 -0.932603 0.0759852 0.107255
72 1 1.57905 8.24167 5.04804 1.91772 -0.41283 -0.289286
73 1 3.28251 6.56711 3.27475 -0.386002 -0.45329 0.0550707
74 1 4.86578 8.35022 4.97508 1.44848 -2.09916 0.120097
75 1 6.44754 6.63517 3.29965 0.207937 -1.39122 0.30443
76 1 8.31663 8.30176 4.82293 0.221852 -1.18805 0.925634
77 1 9.96413 6.69695 3.24021 0.239007 -0.33009 0.00427753
78 1 11.6334 8.29928 4.84657 -1.16898 -1.54067 0.748682
79 1 13.3047 6.61991 3.22961 -2.28607 0.301117 0.865604
80 1 14.9875 8.11712 4.89457 0.243993 1.08829 -0.516358
81 1 0.0738286 9.86559 3.24133 -0.258181 1.58455 0.283089
82 1 1.52482 11.4654 5.02953 0.199849 -0.523948 0.408926
83 1 3.24054 9.94769 3.2127 0.67943 -0.593794 0.506435
84 1 4.80704 11.5608 4.92053 3.71487 -0.651589 0.0843741
85 1 6.47776 9.92172 3.24272 1.06879 1.08846 -0.216043
86 1 8.07823 11.54 4.85065 0.219853 0.0444109 0.0176561
87 1 9.9615 9.91997 3.19569 2.47293 0.986424 1.10157
88 1 11.5563 11.5049 4.95935 -0.188281 0.646678 0.107463
89 1 13.2786 9.8177 3.23131 0.102576 -0.151603 1.0436
90 1 14.9376 11.5154 5.0302 -0.460787 0.242669 -0.138499
91 1 16.436 13.1928 3.40289 -0.0663528 -0.226233 1.10551
92 1 1.47475 14.8625 5.10641 -0.857332 -0.0581891 0.416487
93 1 3.10533 13.1844 3.34488 0.73188 0.384152 -0.803496
94 1 4.82488 14.7877 5.00573 0.752501 -0.381898 0.341417
95 1 6.47789 13.1706 3.24325 0.991677 0.987449 1.28068
96 1 8.20052 14.7794 4.93135 0.712017 2.29131 -0.382912
97 1 9.90066 13.119 3.33039 0.113383 0.183947 0.532431
98 1 11.6573 14.809 4.87131 1.52001 -0.281896 0.668804
99 1 13.3001 13.1141 3.4006 0.736106 0.385384 0.566873
100 1 14.8296 14.9436 5.02717 1.36894 1.38693 -1.50592
101 1 0.0490925 0.163008 6.65931 0.477912 -0.934529 -2.31059
102 1 1.68471 1.57271 8.39178 1.04522 -0.914507 -1.38299
103 1 3.30249 16.4756 6.76493 0.500018 -2.97077 -0.974571
104 1 5.04723 1.59328 8.22003 1.36675 -1.35954 -0.217506
105 1 6.61852 16.4095 6.55887 0.202769 -1.25493 0.702616
106 1 8.24659 1.62669 8.18843 0.451762 -0.357283 1.30362
107 1 9.8956 16.4476 6.46794 0.455154 -0.517654 2.68715
108 1 11.5206 1.65308 8.12497 0.742712 -0.0739158 0.905857
109 1 13.2211 16.4615 6.57709 2.02502 0.281813 -0.111967
110 1 14.8431 1.69797 8.19807 -0.000441488 -1.97624 0.131932
111 1 16.5135 3.3924 6.67311 -0.0710723 -1.00225 0.182169
112 1 1.67335 4.99027 8.37653 -1.3854 2.04274 -1.10867
113 1 3.37885 3.43457 6.71842 0.904367 -0.687921 0.321474
114 1 5.02961 5.04473 8.24517 1.72094 1.4826 -1.96388
115 1 6.60708 3.2455 6.56921 -1.43463 -0.178411 2.90516
116 1 8.17801 4.93886 8.24875 -1.28187 0.235789 0.190659
117 1 9.87006 3.326 6.55359 0.256818 -0.773957 3.8808
118 1 11.5078 4.91918 8.09778 -0.525322 1.82912 0.672728
119 1 13.1259 3.33435 6.61224 -0.92401 -0.38325 0.505286
120 1 14.8612 4.88152 8.40688 0.876696 -0.360872 -0.269782
121 1 16.5047 6.52765 6.79291 -0.659265 0.0820144 0.16217
122 1 1.63327 8.20242 8.30699 1.58604 -1.84789 1.85295
123 1 3.32268 6.68304 6.6134 -0.202735 1.77124 0.352515
124 1 5.02256 8.31433 8.25433 2.14774 -0.798781 0.740414
125 1 6.63682 6.85033 6.56931 0.249537 1.66584 -0.726597
126 1 8.34679 8.34916 8.28896 -0.523326 0.687935 0.709883
127 1 9.96154 6.75196 6.5213 -1.1682 0.905257 1.48448
128 1 11.6135 8.24636 8.14564 -0.608818 1.32942 -1.18272
129 1 13.2949 6.57139 6.56363 1.08836 0.708264 0.794273
130 1 14.8409 8.28919 8.4007 -0.0429839 1.32721 0.857591
131 1 0.0158098 9.81398 6.71481 -0.0105514 -0.936423 1.12847
132 1 1.60665 11.6159 8.28887 0.00186654 -1.485 -0.866939
133 1 3.37035 9.86843 6.75307 2.69535 1.24421 -1.07143
134 1 5.07413 11.5891 8.20292 -1.92534 -0.803152 0.77278
135 1 6.60255 9.91937 6.5753 -0.224184 -1.20486 0.060498
136 1 8.28199 11.6132 8.31839 -4.07806 2.9687 -0.512632
137 1 9.95829 9.94782 6.55486 -0.46022 0.941157 1.10799
138 1 11.6015 11.5608 8.32507 -1.54058 0.275306 -2.64826
139 1 13.2406 9.84202 6.5143 0.933667 0.538566 -0.0799108
140 1 14.9105 11.4643 8.30414 2.38532 -1.00579 -1.30647
141 1 16.3533 13.228 6.64759 0.61775 1.03433 0.494151
142 1 1.64652 14.9614 8.36421 -0.426611 1.7924 -0.178199
143 1 3.18395 13.1622 6.60351 0.750926 -0.396825 -0.215149
144 1 4.973 14.8174 8.2333 -0.245388 -0.179863 0.11983
145 1 6.51369 13.1516 6.5469 0.800492 -0.683556 -0.0394852
146 1 8.36152 14.8203 8.1994 0.255264 0.174482 0.887239
147 1 9.94066 13.1503 6.45147 0.141663 0.978299 1.23867
148 1 11.465 14.8036 8.16379 -0.292078 0.241181 -0.179729
149 1 13.2087 13.2386 6.67493 1.43363 1.33431 0.00985512
150 1 14.9301 14.9234 8.31714 0.959858 -0.107289 0.181447
151 1 16.4839 0.0255148 10.0426 0.159285 -1.11794 1.19673
152 1 1.72247 1.6872 11.5744 -0.145552 0.257108 -1.76784
153 1 3.35626 0.085556 9.9885 0.742623 -0.0782239 -0.593921
154 1 5.13283 1.69291 11.5494 1.45946 0.873822 -0.456749
155 1 6.65952 16.4841 9.86471 -0.403044 -0.942673 -0.185082
156 1 8.39068 1.60586 11.5315 0.360277 0.13377 1.36977
157 1 9.99571 0.0616485 9.78382 -0.479325 -0.561479 1.935
158 1 11.5792 1.69009 11.6136 0.667918 1.1387 0.673634
159 1 13.2498 0.0416621 9.95784 -0.816267 0.518932 2.09645
160 1 14.7263 1.76274 11.5429 0.294517 -0.710536 0.783987
161 1 16.4735 3.25845 9.91077 0.284861 -0.466675 -2.5457
162 1 1.64699 4.96143 11.4776 1.23685 -0.166114 -1.16902
163 1 3.3455 3.31398 9.8474 -0.703127 -1.5332 -3.34152
164 1 5.06408 4.88684 11.6031 -0.782557 -0.59426 -0.778406
165 1 6.62478 3.21415 9.75846 -0.37099 -2.17671 0.210697
166 1 8.28363 5.04892 11.5473 0.615891 -0.624775 -0.171751
167 1 9.88166 3.3333 9.83487 -0.150764 1.50629 -0.861863
168 1 11.4473 4.8607 11.5595 1.16927 -1.44467 0.254307
169 1 13.1581 3.32539 9.84239 1.73069 -0.307215 -0.169437
170 1 14.7988 4.77706 11.6392 2.67076 -0.395295 -1.32754
171 1 0.035352 6.59879 9.92836 -1.23107 2.39123 0.556294
172 1 1.63053 8.14616 11.4598 0.187509 0.623462 3.01154
173 1 3.31682 6.63293 9.89022 -0.613808 -1.20407 -1.30015
174 1 5.01966 8.26493 11.5674 -1.24481 -0.380282 0.440089
175 1 6.76116 6.76076 9.93614 -1.83347 1.88925 1.60704
176 1 8.41303 8.33728 11.5698 -0.277554 -1.22786 -2.01827
177 1 9.92704 6.58715 9.77602 -0.276904 0.865581 -0.505915
178 1 11.5041 8.26007 11.5895 0.878411 1.10489 -0.413355
179 1 13.187 6.51353 9.90839 -1.00072 0.851658 -1.16497
180 1 14.7271 8.27491 11.6102 1.48066 1.52955 -0.103007
181 1 16.4867 9.92029 9.95687 0.682196 -0.448823 0.159595
182 1 1.60755 11.6388 11.5761 -1.32646 0.702178 -0.441579
183 1 3.33985 9.98203 9.90805 -0.040271 -1.31637 -0.0329794
184 1 4.98954 11.626 11.5068 -1.94657 -0.61761 0.150632
185 1 6.60779 9.91624 9.92919 -1.09885 -0.662035 0.806964
186 1 8.42671 11.7059 11.5913 -0.724069 -0.0312976 0.447357
187 1 10.0134 9.95963 9.97923 0.580533 0.82095 -1.37371
188 1 11.5844 11.6235 11.6765 -2.70971 -0.128783 -1.81326
189 1 13.1424 9.88543 9.95497 -0.824261 0.747709 0.547033
190 1 14.9719 11.5877 11.5385 0.13152 -0.363833 0.0275358
191 1 16.4271 13.3223 9.88597 -1.42287 0.0599879 -0.187449
192 1 1.58143 15.0725 11.6374 0.142227 0.734066 1.82488
193 1 3.27073 13.2602 10.0003 -1.14426 0.893034 -0.187361
194 1 5.00505 14.9138 11.6654 -0.500996 -0.437056 1.0394
195 1 6.59909 13.2743 9.84847 -2.59584 -0.18821 -1.80949
196 1 8.38186 14.848 11.5204 -1.28782 -0.0108482 1.88036
197 1 9.97319 13.2774 9.91106 -0.953267 -1.59007 -0.314375
198 1 11.517 14.9201 11.5244 -1.53241 -1.5334 -0.61256
199 1 13.2144 13.2035 9.88003 0.0991508 -0.791926 -0.559809
200 1 14.722 14.8441 11.6531 -1.50212 -1.64961 -0.96866
201 1 16.4657 0.0739968 13.3379 0.406615 -0.197408 -1.76486
202 1 1.67145 1.74849 14.8357 0.57025 -0.598973 -0.631304
203 1 3.35786 0.0792402 13.2725 0.420725 1.51751 -0.305728
204 1 5.03404 1.62845 14.8862 -0.399166 0.267078 -1.48785
205 1 6.73203 16.447 13.1486 -0.460253 -0.448805 -0.395814
206 1 8.28734 1.54758 14.9166 2.49014 0.156252 -0.818987
207 1 9.90528 16.4346 13.2966 -0.137137 1.52454 -0.333239
208 1 11.5421 1.71822 15.0072 0.748023 -0.0168108 -0.622443
209 1 13.1794 0.141382 13.2204 1.48882 -0.495872 -1.44589
210 1 14.8177 1.58896 14.9814 -0.262726 -0.734464 -1.87054
211 1 16.4682 3.36238 13.1675 0.0400059 0.45732 0.713848
212 1 1.78274 4.93802 14.7761 0.347958 0.169039 0.926338
213 1 3.42814 3.2292 13.1368 -0.0406575 0.453602 -1.29678
214 1 4.98368 4.94789 14.7896 -0.800498 -0.061545 1.82765
215 1 6.75613 3.20748 13.2299 1.23831 0.451979 1.74669
216 1 8.2609 4.93045 14.9068 -1.71913 1.08394 0.582265
217 1 9.84331 3.25051 13.3435 -0.148084 0.1567 0.558426
218 1 11.4957 4.87534 14.9486 1.43219 -0.831057 1.704
219 1 13.1122 3.26429 13.2495 0.668135 2.80836 -1.62968
220 1 14.8106 4.77973 14.7965 1.45207 -0.11703 -0.835837
221 1 0.00344771 6.54886 13.1678 -0.362562 0.966616 2.07437
222 1 1.77573 8.14375 14.7152 2.10542 1.16997 2.3468
223 1 3.42266 6.58641 13.1333 -1.1743 0.0340327 0.871206
224 1 5.02339 8.33992 14.6791 -1.29865 -0.161268 -0.0797812
225 1 6.71544 6.68331 13.1612 -0.721482 -0.914444 -0.123407
226 1 8.26421 8.36169 14.9192 -0.99935 1.67796 -1.36849
227 1 9.91259 6.62251 13.2379 1.48238 -0.0233593 -1.37547
228 1 11.6752 8.2387 14.7718 1.52621 -1.25532 -2.13234
229 1 13.1312 6.50309 13.1701 0.00519268 0.073866 -1.13607
230 1 14.833 8.1337 14.7348 -0.805284 0.690923 1.62866
231 1 16.5148 9.84163 13.2235 -0.445296 0.192781 2.82626
232 1 1.6948 11.5948 14.7177 0.716133 -0.0988737 -0.687757
233 1 3.35818 9.93513 13.0846 -0.332051 -0.140114 0.0422533
234 1 4.81997 11.5615 14.7112 0.180976 0.686465 -3.54631
235 1 6.77798 10.0651 13.1586 0.965659 -1.23048 -1.05711
236 1 8.3056 11.6084 14.9222 -1.44726 -0.736145 -1.15929
237 1 9.94309 9.96793 13.1886 0.915987 0.20218 -2.53252
238 1 11.7366 11.5957 14.9359 0.0345394 -2.59001 -0.599061
239 1 13.3625 9.90238 13.2462 -0.321789 1.16567 -0.816517
240 1 14.9288 11.5996 14.9541 -0.935532 0.443074 -0.0392978
241 1 0.0679001 13.2911 13.1621 -0.298891 -0.516696 -0.189311
242 1 1.62664 14.8351 14.8162 0.61272 -1.00346 -2.62919
243 1 3.35662 13.2415 13.0471 -1.64378 -1.48784 -1.92818
244 1 4.89783 14.8664 14.8871 0.382815 -0.513419 0.746763
245 1 6.60803 13.2363 13.2321 -2.16394 -1.03107 -0.906001
246 1 8.23769 14.7484 15.0244 -1.04829 -0.1731 -0.899575
247 1 9.98797 13.3005 13.3036 -2.1645 0.724036 -0.0213758
248 1 11.5529 14.9763 14.9781 -1.42654 -0.724094 -1.63306
249 1 13.2009 13.2387 13.2384 -1.83171 -2.28604 -0.335617
250 1 14.909 14.8962 14.9155 -1.0375 -1.56314 -0.677359
