ITEM: TIMESTEP
120
ITEM: NUMBER OF ATOMS
250
ITEM: BOX BOUNDS pp pp pp
0.0000000000000000e+00 1.6520000000000000e+01
0.0000000000000000e+00 1.6520000000000000e+01
0.0000000000000000e+00 1.6520000000000000e+01
ITEM: ATOMS id type x y z vx vy vz
1 1 16.4768 0.0483927 0.00625531 2.22333 0.201473 0.933314
2 1 1.60407 1.53595 1.54758 0.911194 0.911923 0.208921
3 1 3.42907 0.0334747 0.0367683 -0.949672 0.964644 -0.0768886
4 1 5.10255 1.67133 1.62667 0.657024 1.31247 -0.145091
5 1 6.66142 0.148245 16.4733 -0.340517 -0.686398 -1.81607
6 1 8.33584 1.67407 1.50166 1.20544 1.41467 -1.79636
7 1 9.89198 0.196369 16.3109 -0.40738 1.64296 -0.364024
8 1 11.6038 1.72835 1.59681 0.496804 -1.34826 2.65142
9 1 13.1388 0.0605957 16.337 -0.0533184 0.800983 -0.174255
10 1 14.828 1.68449 1.55942 -0.124629 1.24542 1.55941
11 1 16.38 3.35297 16.451 -0.29332 0.212426 -0.245334
12 1 1.57772 4.99311 1.6543 -0.565289 -1.03813 -0.72392
13 1 3.3146 3.38148 0.141819 0.73396 0.559701 1.88224
14 1 5.04061 4.98389 1.62312 0.691327 -0.244476 -1.40581
15 1 6.68917 3.47365 0.00994145 1.76011 0.516532 -1.29225
16 1 8.41768 4.92028 1.74537 1.14144 0.12643 -0.0225961
17 1 10.0808 3.28437 16.3714 0.210694 -0.503409 1.27448
18 1 11.6096 4.8704 1.68848 -0.525114 1.34383 0.245011
19 1 13.187 3.41235 16.4527 0.0106809 1.57107 1.73208
20 1 14.9793 5.0533 1.66115 0.436194 1.13751 -0.912803
21 1 16.4995 6.67905 0.153945 -0.350428 -0.248144 -1.0282
22 1 1.68026 8.2418 1.76884 -0.571073 -1.49654 -0.696429
23 1 3.24401 6.51282 0.204714 1.68268 0.0554472 1.25425
24 1 5.04235 8.15425 1.71571 -0.559411 -0.076813 0.530843
25 1 6.68051 6.43079 0.0297989 0.174917 -0.906935 0.151932
26 1 8.3141 8.16962 1.68841 -2.71417 -1.68814 2.41211
27 1 9.98882 6.41029 0.0689316 -0.0331993 0.459821 -0.666733
28 1 11.4526 8.24053 1.71627 0.365219 1.1791 -1.05061
29 1 13.173 6.6999 0.0207353 1.23799 -0.0293949 -0.170901
30 1 14.7423 8.34504 1.80346 0.251856 -2.34796 -1.24533
31 1 16.4563 9.89216 0.0948903 -0.208077 -0.722265 -0.794824
32 1 1.81814 11.5102 1.68501 -1.24255 -0.96764 -0.627338
33 1 3.23512 9.74471 0.128985 0.355267 -1.54653 -0.498425
34 1 5.24656 11.4931 1.66816 -1.0628 -0.336982 -1.22287
35 1 6.70765 9.82695 0.148189 -0.219065 -0.525404 1.00507
36 1 8.27953 11.6432 1.65039 -1.14746 0.0882154 0.779343
37 1 9.89998 10.0656 16.5093 0.683935 -0.403331 0.657078
38 1 11.4282 11.6352 1.59687 -2.52026 0.764115 -0.763082
39 1 13.0536 9.93925 0.0962474 1.23375 0.615647 0.0271702
40 1 14.7259 11.635 1.77085 -2.40287 -1.30028 1.43632
41 1 16.4095 13.2818 0.0879547 -0.4457 0.709365 1.88536
42 1 1.75827 15.0271 1.49481 -1.83418 -0.615254 0.809809
43 1 3.40045 13.1819 0.123101 0.33936 -0.578273 0.912087
44 1 5.14705 14.957 1.50744 0.679748 0.406536 -0.627846
45 1 6.78861 13.2199 16.4956 -1.40593 -0.105844 0.787296
46 1 8.37923 14.9012 1.48835 -0.37918 0.0494392 -1.71512
47 1 9.88292 13.3043 16.5151 2.78088 -0.180257 -0.954029
48 1 11.4884 14.8967 1.52971 0.869157 -0.144636 -1.62113
49 1 13.1895 13.1805 16.4221 -1.2652 2.11064 0.246648
50 1 14.6609 14.8626 1.51807 -0.663145 0.105074 -0.044114
51 1 16.494 16.3432 3.20941 -0.810102 -0.162547 0.191439
52 1 1.44422 1.47279 4.76004 2.39212 1.61031 -0.85453
53 1 3.3902 16.458 3.1902 1.2675 0.859141 0.78297
54 1 4.941 1.68443 4.86131 -1.16792 0.118424 -0.949729
55 1 6.72154 16.5168 3.23672 1.29746 -0.125827 1.68332
56 1 8.37766 1.67412 4.94067 0.390775 0.541733 -2.09417
57 1 9.95709 16.4644 3.15157 0.272081 -1.25692 0.000248041
58 1 11.5871 1.6646 5.05141 0.0749364 -1.55456 -0.834675
59 1 13.1981 0.100225 3.3449 -1.49252 -0.0416677 -2.01355
60 1 14.9402 1.51952 4.98834 -0.384046 0.348316 0.319937
61 1 16.4637 3.2028 3.12267 0.575551 -0.131422 0.698267
62 1 1.61028 4.94826 4.7855 -0.109682 -1.34384 -1.10907
63 1 3.2844 3.21661 3.26981 2.54291 -1.20425 -1.2325
64 1 5.02614 4.86398 4.90292 0.565361 -0.261217 -0.74481
65 1 6.7669 3.27711 3.28895 -0.121157 -1.09064 -1.28239
66 1 8.30544 4.92243 4.97311 0.124978 -0.316155 0.245545
67 1 10.0529 3.1714 3.28052 1.96771 -0.0611037 0.754107
68 1 11.6699 4.8878 4.91734 1.19956 0.503838 -0.642708
69 1 13.2924 3.30802 3.29495 1.99019 0.201879 -0.193521
70 1 14.921 4.91452 4.90982 -0.951594 -0.451088 0.0511422
71 1 0.0043073 6.62141 3.38524 2.6538 0.461046 0.12518
72 1 1.60255 8.29819 4.84984 1.38316 0.429075 0.00460213
73 1 3.41088 6.58177 3.33077 0.678774 -0.580458 0.582049
74 1 4.97266 8.25632 5.02379 -1.33345 -0.372379 0.734156
75 1 6.61902 6.63022 3.43411 -0.376224 0.887449 1.12053
76 1 8.27524 8.1094 5.10901 1.47516 -0.161654 0.527288
77 1 10.1156 6.5914 3.37885 2.02094 2.13344 -0.79854
78 1 11.536 8.31169 4.92579 0.996414 -0.103764 -1.18976
79 1 13.2299 6.64278 3.3634 1.5188 0.626605 -1.75367
80 1 14.7043 8.30048 4.95684 2.16816 0.643776 -0.553897
81 1 0.00998002 10.0634 3.35505 0.615378 1.01221 -1.18934
82 1 1.79994 11.6129 4.82778 -0.290676 -0.272279 -0.594353
83 1 3.5105 9.92236 3.25049 -0.415393 -1.22769 0.159286
84 1 5.06349 11.638 4.9646 0.36741 0.14142 -1.05326
85 1 6.7374 9.87916 3.34711 -0.840882 -0.333521 1.23109
86 1 8.25462 11.6365 4.98483 -1.02885 -1.92025 0.169438
87 1 9.95739 9.98206 3.27028 -0.241599 2.68933 -0.444753
88 1 11.4008 11.655 4.97193 -1.82675 -0.624184 -0.521255
89 1 13.0688 10.0094 3.32878 0.955751 0.494251 0.371415
90 1 14.8069 11.7026 4.89368 -3.43145 -0.407488 -0.655492
91 1 0.00262106 13.4071 3.16959 -1.17358 1.02514 -1.40324
92 1 1.64749 14.9436 4.87088 -2.44027 0.715364 2.7009
93 1 3.51118 13.3492 3.19696 -1.58189 1.08558 -1.63698
94 1 5.12733 15.04 4.92113 -0.275461 0.343304 0.925581
95 1 6.80909 13.2494 3.25776 -2.56809 2.55311 0.870829
96 1 8.23896 14.9773 5.01555 -1.62511 0.243636 -0.996406
97 1 9.98994 13.3254 3.29111 -1.35322 -2.17679 1.12128
98 1 11.5773 15.0278 4.88247 0.742041 -0.664534 -1.49396
99 1 13.2001 13.2544 3.31546 -0.433853 -0.639964 0.725123
100 1 14.8128 14.8899 4.95095 -1.45781 1.97665 -0.515293
101 1 16.5161 16.4342 6.53734 1.24613 0.676767 0.409121
102 1 1.52169 1.69211 8.27722 -0.556002 1.21869 0.283827
103 1 3.30581 0.105662 6.60303 -0.0272174 -0.785978 0.702237
104 1 4.86629 1.80923 8.26928 -0.836291 0.700381 -0.593073
105 1 6.59298 0.0904211 6.64328 0.0604135 -0.215489 -0.395451
106 1 8.21817 1.75807 8.391 0.670778 0.631193 -0.427987
107 1 9.86334 0.0672743 6.69152 -1.48396 -0.985486 -0.481456
108 1 11.6116 1.66113 8.34712 1.43927 -0.598784 -0.681965
109 1 13.2774 16.5026 6.68953 1.41837 -0.29886 1.51328
110 1 14.8846 1.73987 8.18147 0.283799 -1.19981 -0.724693
111 1 16.5006 3.41458 6.53052 2.38938 -0.134416 0.796189
112 1 1.68297 4.83426 8.19771 0.140619 -0.0140832 0.300332
113 1 3.17579 3.21929 6.51398 -0.941335 -0.627678 -0.320449
114 1 4.77806 4.78338 8.30259 0.458596 1.48034 -0.662778
115 1 6.70891 3.27623 6.62283 -0.63219 1.46203 -0.0328929
116 1 8.38775 4.70598 8.36879 -1.12115 -0.811614 -1.36806
117 1 9.99083 3.25232 6.69185 0.0212621 0.585267 -0.138601
118 1 11.6186 4.83674 8.35473 -0.165283 0.512296 -0.113917
119 1 13.2181 3.32756 6.66319 -0.427742 0.773118 -1.62917
120 1 14.9588 5.0022 8.29077 0.697975 -1.25342 1.66337
121 1 16.5121 6.46179 6.5428 -0.743351 -1.74617 1.23718
122 1 1.56795 8.25769 8.01134 0.474919 0.706567 -0.235023
123 1 3.24692 6.52998 6.45303 -0.716373 0.503663 -0.0789536
124 1 4.81543 8.06715 8.18229 0.795101 -2.75573 0.720409
125 1 6.4668 6.50121 6.73837 0.98305 0.471949 0.397219
126 1 8.187 8.06315 8.23011 2.23342 0.0425274 0.0594912
127 1 10.0696 6.57117 6.73227 0.488105 -0.553215 -0.0699006
128 1 11.5457 8.16095 8.33994 1.38335 -1.71562 -1.1749
129 1 13.1949 6.49984 6.62369 3.4286 -0.763554 0.345056
130 1 14.9492 8.29314 8.1079 -1.42571 0.162205 -0.516877
131 1 16.4333 10.0949 6.49374 -1.60298 -0.53865 -0.00365969
132 1 1.69968 11.5719 8.17758 1.17696 0.779907 -1.63982
133 1 3.31163 9.90847 6.58974 0.409926 3.11364 -0.607835
134 1 5.09235 11.5683 8.11078 0.296673 0.419331 -0.00509413
135 1 6.59182 9.86052 6.58539 2.64107 -1.95553 -0.154429
136 1 8.29506 11.5829 8.28575 -0.660593 0.710059 1.47379
137 1 9.92548 9.88101 6.72285 -0.617977 1.01214 1.64146
138 1 11.479 11.5677 8.49209 -1.27546 -2.06912 1.48395
139 1 13.11 9.99647 6.55625 -0.0952671 0.242252 -0.776659
140 1 14.9133 11.5693 8.16579 -1.03033 -1.84169 -1.74405
141 1 0.00828794 13.2329 6.39895 -1.05956 1.92703 -0.423439
142 1 1.79821 14.75 8.03737 1.00695 -0.0656927 0.140384
143 1 3.41634 13.2747 6.47135 0.088766 0.1498 -1.1494
144 1 4.97347 14.9599 8.26306 0.181616 0.492218 0.766045
145 1 6.66524 13.2242 6.65793 1.84474 -0.886127 -0.54734
146 1 8.21827 14.9711 8.33733 1.49308 1.0067 -0.417113
147 1 9.97403 13.2419 6.64585 -0.325791 -1.85956 -0.633587
148 1 11.4017 14.9088 8.26353 -0.45102 1.11853 -0.357173
149 1 13.0349 13.3057 6.63234 -2.14539 0.155942 2.24704
150 1 14.9929 14.7802 8.16917 0.786102 0.0626402 -0.623813
151 1 0.0585925 16.4424 9.77392 -1.02487 -1.04477 1.46442
152 1 1.59338 1.5679 11.6099 -2.88836 -0.435776 1.50962
153 1 3.18886 16.4926 9.7905 1.60375 -0.772894 1.25558
154 1 4.75951 1.70746 11.6255 0.161113 0.502251 1.2538
155 1 6.37995 0.129316 9.9488 -0.77907 -0.670824 -1.55628
156 1 8.23194 1.71674 11.6404 1.22522 0.506823 -1.29461
157 1 9.9244 0.113156 9.87106 0.755653 2.62865 -1.33736
158 1 11.7059 1.56582 11.6217 -0.0726662 0.187267 -0.816081
159 1 13.4285 0.00192965 9.89909 0.335859 0.544946 -2.2045
160 1 14.9593 1.63165 11.458 0.766395 -0.887495 0.501474
161 1 16.4884 3.3731 9.93125 -0.781713 -0.953321 0.556588
162 1 1.59182 5.0578 11.6686 0.530947 0.956844 1.26778
163 1 3.01691 3.32059 10.0983 -3.3802 0.192396 0.560976
164 1 4.71969 5.02622 11.776 -1.52958 1.26973 0.111012
165 1 6.41113 3.27728 9.94894 -2.56873 -0.338631 1.79316
166 1 8.19999 5.03875 11.6662 -1.33355 -0.765473 -0.317
167 1 10.0068 3.29828 10.1798 0.174462 0.831909 0.715858
168 1 11.7408 5.06563 11.6629 -0.48517 -1.25703 1.64984
169 1 13.3214 3.39718 9.99076 -0.271074 -0.0481689 -0.398769
170 1 14.903 5.0048 11.7284 0.238023 1.24666 0.238086
171 1 0.102355 6.58653 9.7142 -3.51 1.67014 1.63385
172 1 1.60666 8.27091 11.4584 -0.132822 2.4253 -0.134928
173 1 3.14556 6.6535 9.83489 0.259464 -1.00458 -1.47495
174 1 4.83003 8.17828 11.5972 -0.76395 0.962732 0.345908
175 1 6.47566 6.60944 9.88641 -3.51404 -0.0248224 1.03015
176 1 7.96523 8.20794 11.5781 -0.480649 -0.779706 -0.477237
177 1 9.91843 6.56176 9.93489 0.258956 -1.92903 -0.753906
178 1 11.495 8.31914 11.5836 0.126305 -1.31835 1.27028
179 1 13.4553 6.63355 9.89226 -1.62678 -1.45292 -0.382493
180 1 14.8858 8.3191 11.4724 0.461889 -0.12919 -1.69532
181 1 16.4639 9.95955 9.83124 1.45876 0.995594 -0.610943
182 1 1.78238 11.5127 11.7434 0.805319 0.139357 -1.65781
183 1 3.26751 9.92869 9.89637 0.255516 0.957274 -1.98864
184 1 4.99819 11.4755 11.7229 2.61873 -1.34009 0.275291
185 1 6.35753 9.69988 9.84041 0.329948 -0.692876 1.5879
186 1 8.16481 11.4419 11.6134 -0.809424 0.544784 0.43101
187 1 9.8341 9.75142 10.0354 0.757966 -1.67762 0.614133
188 1 11.5428 11.4135 11.6282 1.00255 -0.119951 1.88644
189 1 13.2052 9.78368 9.88887 -1.83736 -0.888276 1.91973
190 1 14.9399 11.5496 11.5506 1.6747 -0.441869 0.182827
191 1 0.0199188 13.1204 9.79346 0.663449 0.606088 -0.800172
192 1 1.61868 14.7598 11.4951 1.4963 0.662959 1.80359
193 1 3.43493 13.0169 9.94673 1.48387 0.499913 0.122527
194 1 4.90166 14.8022 11.5837 0.986274 0.488476 0.786573
195 1 6.57627 13.1795 9.84163 0.24985 -0.00840685 -1.40322
196 1 8.22589 14.8726 11.5627 -0.408179 0.0402979 -0.582989
197 1 9.90298 13.2191 9.99809 0.944239 -1.23152 1.26179
198 1 11.5336 14.901 11.4911 0.625152 1.69913 -1.00046
199 1 13.2911 13.2825 9.99116 0.474658 -0.231231 0.118195
200 1 14.9676 14.8113 11.5455 -0.619217 -1.52991 0.0594866
201 1 0.0431587 16.4359 13.1748 -0.841696 1.38165 0.03726
202 1 1.56158 1.63206 14.8172 -0.339801 1.08325 0.452541
203 1 3.16844 16.3642 13.2683 0.139129 0.475642 2.38891
204 1 4.88698 1.70792 14.9176 0.438478 -1.54955 -1.30136
205 1 6.5668 0.0741102 13.0764 -0.410569 -2.24941 -1.09335
206 1 8.24691 1.80428 14.7269 1.16114 -1.29158 -2.2009
207 1 9.81297 16.5092 13.1678 0.00295966 0.938877 -1.00973
208 1 11.5494 1.81666 14.7136 0.458474 -0.444782 0.0975713
209 1 13.3195 0.051547 13.1231 2.05788 0.393859 0.0158758
210 1 14.8352 1.55717 14.7862 -2.00104 -0.125988 -0.450844
211 1 16.4533 3.36714 13.2032 -1.62348 -0.391431 1.4522
212 1 1.58544 5.06332 14.96 0.494914 -0.904885 -1.64004
213 1 3.14123 3.24885 13.3558 -1.45411 0.0193703 0.228263
214 1 4.84234 4.99658 15.0567 -0.307886 -0.483843 0.0465471
215 1 6.44587 3.28119 13.2481 0.449931 -0.613845 0.250235
216 1 8.24548 4.78493 14.7547 -0.662307 0.402699 0.504927
217 1 9.95312 3.27553 13.0976 -2.07199 -0.168686 -1.32655
218 1 11.7172 4.99536 14.7217 -1.05744 -1.78682 2.11343
219 1 13.2903 3.26309 13.1795 -2.47182 0.993005 -0.251052
220 1 14.8356 5.00278 14.8551 -0.98257 -0.173185 -1.3789
221 1 16.5017 6.7305 13.2357 -2.05717 1.22873 0.196317
222 1 1.56146 8.28032 14.8926 1.33466 -1.86998 -1.60474
223 1 3.19698 6.76192 13.3961 -0.380536 0.901783 -0.327432
224 1 4.91195 8.14593 15.051 0.123007 -0.200689 0.369748
225 1 6.50989 6.60577 13.2923 0.518589 0.0275538 1.63477
226 1 8.22237 8.13124 15.0369 -0.85183 2.27492 2.83173
227 1 9.95215 6.66365 13.1975 -0.477561 0.369542 1.41955
228 1 11.4499 8.26261 14.925 -1.59304 0.145352 -0.232239
229 1 13.2548 6.79061 13.3283 -2.47875 0.306662 -1.63574
230 1 14.7985 8.37658 14.9227 -0.385994 -1.73522 1.44072
231 1 16.497 9.94138 13.1884 0.215688 -1.56151 1.04487
232 1 1.69865 11.5495 14.9857 -0.483307 -0.633978 -0.25459
233 1 3.32442 9.82773 13.456 0.181019 -2.3591 -1.76902
234 1 4.93706 11.5294 15.1207 -1.54295 0.511432 -1.06032
235 1 6.53322 9.91222 13.4159 2.30976 0.174029 1.37561
236 1 8.20134 11.497 14.8381 0.721994 1.04171 -0.0174406
237 1 9.76504 9.84911 13.2258 0.985743 1.21295 2.83076
238 1 11.6553 11.6028 14.8251 2.21683 -0.942751 -1.01795
239 1 13.1867 9.88882 13.2878 1.13748 1.7025 -0.128863
240 1 14.8279 11.4718 14.9028 2.75342 0.245109 0.259586
241 1 0.167489 13.1204 13.1906 0.727936 -0.203807 0.865037
242 1 1.61248 14.7172 14.9078 0.539206 -1.48943 0.149464
243 1 3.43409 13.1523 13.3254 -0.169284 -0.249051 -0.867948
244 1 5.0189 14.9295 14.8503 0.338767 0.38371 3.09308
245 1 6.60021 13.1096 13.3109 -0.00819705 -0.850483 -0.0114508
246 1 8.24593 14.8254 14.7543 -2.2598 -0.933995 -0.677235
247 1 9.88925 13.1364 13.0659 1.25364 2.15236 1.89176
248 1 11.5316 14.8813 14.7901 0.249401 2.07815 -1.11512
249 1 13.2784 13.1344 13.1412 1.3916 0.235432 -0.0895789
250 1 14.8829 14.8323 14.804 -0.748826 -0.114962 -0.323091
