ITEM: TIMESTEP
10
ITEM: NUMBER OF ATOMS
250
ITEM: BOX BOUNDS pp pp pp
0.0000000000000000e+00 1.6520000000000000e+01
0.0000000000000000e+00 1.6520000000000000e+01
0.0000000000000000e+00 1.6520000000000000e+01
ITEM: ATOMS id type x y z vx vy vz
1 1 16.4416 0.0613469 0.0872118 -1.51623 0.906923 1.52826
2 1 1.57236 1.56432 1.57026 -1.0347 -1.33958 -1.24179
3 1 3.3551 0.0180706 0.0726731 0.845746 0.393413 0.952519
4 1 5.00427 1.62857 1.60496 0.492628 -0.0661238 -0.319028
5 1 6.56634 0.0459397 0.0836526 -0.672698 0.301008 1.03132
6 1 8.19755 1.62193 1.57065 -0.921315 -0.521697 -1.10702
7 1 9.87199 16.4538 0.0708649 -0.554624 -1.29317 1.2787
8 1 11.5105 1.72957 1.60758 -0.918958 1.25661 -0.571235
9 1 13.2897 0.0830826 16.4919 0.847048 1.43742 -0.112379
10 1 14.8856 1.66061 1.60478 -0.0734887 0.449731 -0.373806
11 1 0.0808204 3.27783 0.0908797 1.48132 -0.214956 1.50189
12 1 1.74395 5.033 1.56722 1.83559 1.09235 -1.46308
13 1 3.38593 3.37258 16.4934 1.43408 0.940336 -0.470131
14 1 4.88693 4.98945 1.67125 -0.9743 0.391781 0.432564
15 1 6.56356 3.24643 0.0993471 -0.62511 -0.819036 1.88319
16 1 8.22763 4.96287 1.69016 -0.423646 0.146652 0.566564
17 1 9.92535 3.30936 16.5038 -0.130335 0.33503 0.0167182
18 1 11.5883 4.92482 1.69803 0.619268 -0.47413 0.91033
19 1 13.1511 3.31266 16.4403 -0.894127 0.218674 -1.17722
20 1 14.8834 4.89368 1.67802 0.349303 -1.1099 0.165994
21 1 0.0783465 6.57734 0.0177151 1.03745 -0.535875 -0.012894
22 1 1.6451 8.17975 1.5855 -0.137896 -1.5695 -1.12239
23 1 3.31832 6.534 16.4434 0.382678 -1.19 -1.83085
24 1 4.94152 8.20804 1.59747 -0.38551 -0.94817 -1.18096
25 1 6.62966 6.52795 0.042188 0.647615 -1.39021 0.629813
26 1 8.27954 8.24611 1.60775 0.447205 -0.0117772 -0.993921
27 1 9.98566 6.54498 16.5029 1.16408 -1.19935 -0.252825
28 1 11.5891 8.32967 1.73892 0.323193 0.992054 1.25449
29 1 13.2231 6.64622 0.0411472 0.273916 0.530579 0.883073
30 1 14.8216 8.21862 1.63133 -0.461617 -0.956861 -0.66157
31 1 0.057674 9.91483 16.4751 1.04689 -0.218542 -0.983703
32 1 1.62061 11.528 1.67918 -0.852048 -0.54832 0.453278
33 1 3.23284 9.89799 0.0404152 -1.40835 -0.46829 0.580236
34 1 4.85887 11.474 1.63763 -2.23841 -1.50677 -0.413986
35 1 6.62935 9.90033 0.0305996 0.109795 -0.366739 0.402836
36 1 8.18204 11.5983 1.57192 -1.27675 0.386674 -1.12865
37 1 9.965 9.9574 0.0792147 0.817496 0.784238 1.25408
38 1 11.6033 11.5379 1.59072 0.933589 -0.252571 -0.885797
39 1 13.2702 9.99467 16.487 1.05889 1.00177 -0.635144
40 1 14.8635 11.4862 1.57986 0.394372 -1.419 -1.2984
41 1 16.4805 13.2702 16.435 -0.600591 0.863752 -1.31843
42 1 1.63594 14.9205 1.69237 -0.634225 0.810384 0.58363
43 1 3.27279 13.2581 16.4566 -0.662886 0.903944 -1.08384
44 1 4.8658 14.9344 1.68082 -1.63029 0.697554 0.36435
45 1 6.66975 13.1708 0.068422 0.444309 -0.405573 0.94709
46 1 8.24743 14.8287 1.61523 -0.574455 -0.779933 -0.566745
47 1 9.97786 13.2426 0.0723243 1.3225 0.512537 1.15818
48 1 11.5786 14.8944 1.73324 0.651786 0.549218 1.35347
49 1 13.2996 13.1707 0.0537513 1.72701 -0.501189 1.04108
50 1 14.9016 14.8697 1.69773 0.55411 0.0850878 1.00898
51 1 16.5063 0.0390478 3.36878 -0.548855 0.505767 0.971522
52 1 1.56227 1.58811 4.93058 -1.39407 -0.888688 -0.12564
53 1 3.25882 0.0549017 3.22698 -0.848779 1.46056 -1.17043
54 1 5.03903 1.67368 4.96255 1.41057 0.436906 -0.0597736
55 1 6.52792 16.4442 3.26823 -1.495 -1.54626 -0.475433
56 1 8.19377 1.5726 4.90162 -1.27075 -1.65618 -1.27798
57 1 9.95311 16.4883 3.30893 0.587973 -0.42223 0.0982098
58 1 11.5338 1.724 4.91779 -0.458704 1.18209 -1.07835
59 1 13.1737 16.4519 3.40137 -0.802114 -0.9557 1.862
60 1 14.9497 1.56937 5.00657 1.39738 -1.08765 0.830745
61 1 0.0782669 3.33163 3.28942 1.61788 0.453592 -0.270085
62 1 1.6613 4.96555 4.91013 0.353983 -0.0126348 -0.690952
63 1 3.31879 3.32373 3.36112 0.294963 0.0212422 0.971367
64 1 4.92517 4.99971 4.87075 -0.360742 0.6939 -1.2632
65 1 6.6778 3.35991 3.37932 1.19991 0.927359 1.34202
66 1 8.24886 4.98854 4.89507 -0.00906519 0.917513 -0.922883
67 1 9.91581 3.37668 3.2964 -0.0959686 1.19423 -0.243191
68 1 11.6107 4.92077 4.90584 0.807014 -0.599053 -1.04347
69 1 13.3056 3.31865 3.30874 1.89426 -0.0273512 0.101981
70 1 14.9127 5.02976 4.89714 1.05173 1.24159 -0.977672
71 1 0.0185233 6.55531 3.25797 0.542149 -0.781308 -1.01397
72 1 1.69832 8.17956 4.97315 0.849665 -1.28654 0.127079
73 1 3.37938 6.55509 3.30137 1.24751 -0.547392 -0.0530435
74 1 4.98813 8.17991 5.04186 0.247486 -1.18672 1.29798
75 1 6.6517 6.67713 3.24611 0.783746 1.5733 -1.05566
76 1 8.16275 8.26489 5.02995 -1.8715 0.298766 1.20923
77 1 9.91159 6.67685 3.26872 -0.121463 1.30909 -0.722377
78 1 11.5256 8.17486 4.92792 -0.565296 -1.39366 -0.625508
79 1 13.2272 6.64013 3.34696 0.309507 0.442682 0.569657
80 1 14.8053 8.30351 4.9547 -1.06648 0.84084 0.146941
81 1 16.4573 9.88839 3.33801 -1.13266 -0.726051 0.551607
82 1 1.57683 11.6358 4.90129 -1.26519 1.22771 -0.884461
83 1 3.22183 9.85772 3.28569 -1.73516 -1.2446 -0.148221
84 1 5.01336 11.5343 5.02359 0.568764 -0.549475 1.20431
85 1 6.5182 9.995 3.25688 -1.6556 1.30696 -0.816302
86 1 8.32208 11.5414 4.96374 1.24198 -0.49417 0.121365
87 1 9.99255 9.93363 3.32624 1.04795 0.423925 0.265738
88 1 11.549 11.5054 4.8665 -0.0999298 -1.12659 -1.74802
89 1 13.2474 9.83291 3.21288 0.735658 -1.19246 -1.4814
90 1 14.8135 11.5958 4.86547 -1.17626 0.271212 -1.60173
91 1 16.5054 13.2067 3.34423 -0.21479 -0.101606 0.39876
92 1 1.64706 14.9291 4.94186 0.00588932 1.00379 -0.172039
93 1 3.28424 13.2746 3.25994 -0.523175 0.939005 -0.783163
94 1 4.90325 14.8748 4.99414 -0.898557 0.164504 0.627304
95 1 6.52011 13.1282 3.37233 -1.81214 -1.61243 1.23687
96 1 8.25962 14.8708 4.87664 -0.231175 -0.16489 -1.44335
97 1 9.90587 13.227 3.21619 -0.184806 -0.0862999 -1.57512
98 1 11.5023 14.789 5.0038 -1.26595 -1.37091 0.801109
99 1 13.2692 13.254 3.32354 0.828793 0.544218 0.110656
100 1 14.8839 14.8088 4.94697 0.193952 -1.2275 -0.0141014
101 1 16.4462 16.4328 6.56816 -1.37706 -1.63685 -0.219142
102 1 1.68686 1.71225 8.3502 0.481527 1.54549 1.46015
103 1 3.28502 16.4937 6.59928 -0.487349 -0.0700806 -0.192708
104 1 5.00016 1.73899 8.35417 0.462215 1.67999 1.61451
105 1 6.51986 0.0434069 6.64821 -1.57644 0.813499 0.497323
106 1 8.24556 1.72633 8.16778 -0.142536 1.23441 -1.8109
107 1 9.87951 16.5172 6.6536 -0.706197 -0.0745869 0.538815
108 1 11.4962 1.73013 8.18627 -1.16638 1.31671 -1.29689
109 1 13.2455 0.0826688 6.52983 0.252832 1.47285 -1.23529
110 1 14.8346 1.70013 8.3247 -0.695594 0.929248 1.30406
111 1 16.5106 3.29432 6.66926 0.091277 -0.153389 1.20759
112 1 1.66845 5.031 8.31323 0.435452 0.900708 0.92144
113 1 3.37211 3.23624 6.60237 1.02634 -1.34374 -0.0787282
114 1 4.98941 4.89634 8.19817 0.550421 -0.950596 -0.845061
115 1 6.6211 3.34355 6.67164 0.382898 0.973484 0.676748
116 1 8.35622 4.9246 8.21603 1.8991 -0.334926 -1.19086
117 1 9.9399 3.22824 6.53214 0.285737 -0.963901 -1.85435
118 1 11.5509 4.98129 8.28445 -0.301828 0.459293 0.43383
119 1 13.1984 3.32789 6.57911 -0.101076 0.499618 -0.674281
120 1 14.8518 4.94195 8.17351 -0.446705 -0.139091 -1.66327
121 1 0.0865354 6.62047 6.53286 1.47197 0.190622 -1.43242
122 1 1.6647 8.18381 8.32316 0.0727693 -0.96764 1.09319
123 1 3.27788 6.64682 6.69121 -0.314138 0.527112 1.56061
124 1 5.02426 8.30285 8.21665 0.972243 0.742489 -0.603882
125 1 6.53891 6.62254 6.5992 -1.07533 -0.190822 -0.0949985
126 1 8.22693 8.18789 8.21712 -0.375987 -1.23681 -1.02131
127 1 10.0023 6.67034 6.60032 1.38819 0.773115 -0.286517
128 1 11.5029 8.271 8.25744 -0.928236 0.029025 0.367209
129 1 13.1609 6.60989 6.57217 -0.967232 -0.0291874 -0.609987
130 1 14.881 8.20413 8.2099 0.12968 -1.24875 -1.04315
131 1 16.4297 9.96255 6.63931 -1.74502 0.974494 0.427814
132 1 1.61384 11.5096 8.28627 -0.637053 -0.845834 0.619546
133 1 3.24956 10.0037 6.55506 -1.40249 1.77038 -1.0618
134 1 4.92747 11.5344 8.28663 -0.718687 -0.358157 0.737865
135 1 6.52124 9.92428 6.65834 -1.29403 0.296134 0.761892
136 1 8.21056 11.5937 8.20625 -0.259309 0.248659 -1.03967
137 1 9.99126 9.82395 6.58631 1.26301 -1.54121 -0.517125
138 1 11.545 11.5148 8.21394 -0.217103 -0.959719 -0.706128
139 1 13.1914 9.89742 6.70246 -0.367339 -0.237084 1.71062
140 1 14.877 11.6354 8.30554 -0.199847 1.32759 0.779843
141 1 0.0397545 13.2142 6.64302 0.804782 -0.0823391 0.761061
142 1 1.6067 14.941 8.27837 -0.80112 0.98653 0.260518
143 1 3.38834 13.2751 6.64083 1.29191 1.0448 0.797482
144 1 4.98513 14.9592 8.23753 0.503644 1.59125 -0.185656
145 1 6.61802 13.1393 6.67225 0.255979 -1.12405 1.02426
146 1 8.25189 14.9044 8.23735 -0.248664 0.547344 -0.56147
147 1 9.97758 13.2576 6.67506 0.918829 0.405555 1.13361
148 1 11.5612 14.844 8.20774 0.240983 -0.270527 -0.821422
149 1 13.1833 13.1813 6.52779 -0.639557 -0.889012 -1.40781
150 1 14.8197 14.7826 8.23619 -1.04056 -1.33907 -0.505641
151 1 0.0830727 0.0297083 9.83437 1.13712 0.654282 -1.29418
152 1 1.64632 1.60357 11.5478 -0.247864 -0.825852 0.10482
153 1 3.24099 0.00154827 9.84088 -0.939935 -0.17014 -1.11038
154 1 4.94104 1.57048 11.6129 -0.373575 -1.49497 0.85375
155 1 6.5958 0.0600293 9.81809 -0.0874577 0.995437 -1.62686
156 1 8.18487 1.63245 11.5867 -1.35651 -0.322498 0.197152
157 1 9.83091 16.4344 9.87645 -1.41581 -1.48416 -0.755173
158 1 11.5402 1.56285 11.5432 -0.720122 -1.70051 -0.488537
159 1 13.1373 0.0782885 9.91352 -1.45762 1.3619 -0.316952
160 1 14.8028 1.59163 11.6557 -0.989052 -1.2134 1.66109
161 1 16.4844 3.39231 9.98475 -0.574469 1.55648 1.51587
162 1 1.74333 4.94305 11.6093 1.72512 -0.395829 1.03355
163 1 3.32965 3.24566 10.0126 0.639857 -0.817913 2.19541
164 1 5.00314 5.04492 11.5629 1.05715 1.70035 -0.194118
165 1 6.64127 3.24878 9.88745 0.780302 -0.57724 -0.0850966
166 1 8.34717 4.93313 11.5613 1.46468 -0.683657 -0.041607
167 1 9.8801 3.32247 9.82967 -0.520483 0.121687 -1.36882
168 1 11.6077 4.89674 11.6449 0.543121 -0.861338 1.38568
169 1 13.1957 3.2787 9.99966 -0.723528 -0.553136 1.4427
170 1 14.81 4.88604 11.5289 -1.18936 -0.943664 -0.566456
171 1 16.5047 6.5745 9.86084 -0.552307 -0.781528 -0.733116
172 1 1.71131 8.29164 11.5675 1.01781 0.773372 -0.0415132
173 1 3.28239 6.60991 9.87903 0.13246 0.050152 -0.385439
174 1 5.02947 8.34956 11.506 1.48737 1.68486 -1.20204
175 1 6.63542 6.66249 9.85975 0.353178 0.619558 -1.11931
176 1 8.22015 8.22129 11.5119 -0.761314 -0.423733 -0.668789
177 1 9.82451 6.64847 9.99638 -1.26399 0.643439 1.44357
178 1 11.6016 8.30486 11.6439 0.748018 0.576825 1.43713
179 1 13.1361 6.59905 9.87424 -1.52766 -0.147266 -0.575925
180 1 14.9493 8.27715 11.5104 1.48888 -0.164268 -1.02229
181 1 16.4471 9.91373 9.86762 -1.15976 0.029879 -0.740904
182 1 1.7296 11.6421 11.5852 1.37028 1.19614 0.226851
183 1 3.35057 9.87782 9.8959 0.859458 -0.430205 -0.287522
184 1 4.97336 11.6224 11.642 0.631825 1.05916 1.24739
185 1 6.70121 9.92909 9.84992 1.93227 0.537792 -1.04346
186 1 8.34072 11.5048 11.6347 1.35364 -1.00752 1.20851
187 1 9.98754 9.86025 9.94721 1.33249 -1.00484 0.542243
188 1 11.5548 11.5713 11.5051 0.341842 0.152508 -0.846715
189 1 13.2838 9.86997 9.99228 1.23133 -0.820741 1.39062
190 1 14.8166 11.5831 11.6024 -1.01426 0.420226 0.903079
191 1 16.4514 13.1724 9.99573 -0.889359 -0.724627 1.61514
192 1 1.73662 14.7738 11.6129 1.52878 -1.73485 0.699853
193 1 3.35646 13.2411 9.93321 1.15565 0.446323 0.187265
194 1 5.02726 14.8201 11.5726 1.29871 -0.760813 -0.229832
195 1 6.70752 13.1892 9.84201 2.00299 -0.409451 -1.01708
196 1 8.30345 14.9358 11.64 0.832785 1.33014 1.13331
197 1 9.99483 13.1383 9.9407 1.58825 -1.30905 0.406303
198 1 11.6262 14.8755 11.6096 1.39374 0.305221 0.845653
199 1 13.3006 13.2975 9.99903 1.35055 1.56933 1.65446
200 1 14.9456 14.9231 11.495 1.66114 1.46663 -1.0666
201 1 0.0448977 16.4938 13.2476 0.742401 -0.229604 0.428407
202 1 1.63982 1.57114 14.9269 -0.117825 -1.42551 1.10431
203 1 3.27625 16.4736 13.1861 -0.539706 -0.900139 -0.437823
204 1 4.97867 1.6838 14.8251 0.392206 0.378118 -0.666573
205 1 6.55649 0.0311377 13.1927 -0.849799 0.563161 -0.182644
206 1 8.33924 1.73731 14.8786 1.19604 1.39451 0.279588
207 1 9.93675 0.0886483 13.1922 0.538829 1.56475 -0.304118
208 1 11.4696 1.66169 14.9141 -1.72513 -0.186158 0.88319
209 1 13.3031 0.0126614 13.3048 1.39893 0.0583928 1.82963
210 1 14.8039 1.67767 14.8982 -1.09702 0.832117 0.563777
211 1 16.4292 3.28618 13.3108 -1.48877 -0.641921 1.73011
212 1 1.59813 4.95474 14.8619 -0.925935 -0.306024 -0.407986
213 1 3.36128 3.29782 13.2699 0.96033 -0.0780587 1.04969
214 1 5.03464 4.92978 14.9425 1.63081 -0.420939 1.05913
215 1 6.58669 3.30296 13.2288 -0.379244 0.017747 0.00627544
216 1 8.20598 4.90847 14.8311 -0.827166 -0.814886 -0.593118
217 1 9.91724 3.23051 13.1846 0.0796609 -1.30633 -0.83822
218 1 11.5776 4.87793 14.9441 0.0537983 -1.1678 1.19511
219 1 13.1546 3.34966 13.1768 -1.19265 0.521467 -0.354582
220 1 14.8814 4.96121 14.8064 -0.0325604 0.170313 -0.754766
221 1 16.4667 6.51491 13.1943 -1.0656 -1.62562 -0.754907
222 1 1.64549 8.25191 14.7727 -0.408365 -0.188676 -2.03876
223 1 3.28603 6.66127 13.1841 -0.187037 0.846766 -0.787772
224 1 4.876 8.19957 14.8424 -1.36911 -1.17407 -0.360103
225 1 6.61321 6.58257 13.212 0.158793 -0.435857 -0.0763483
226 1 8.20186 8.34522 14.8014 -0.78691 1.3858 -1.0606
227 1 9.92459 6.62102 13.1643 0.13973 0.217496 -0.669047
228 1 11.5248 8.19082 14.9436 -1.08093 -1.05529 1.63301
229 1 13.1581 6.67438 13.3068 -1.07739 1.05721 1.63352
230 1 14.8206 8.30478 14.8143 -0.583767 0.541907 -0.908836
231 1 16.4561 9.95365 13.142 -0.926297 0.675622 -1.63046
232 1 1.64233 11.5214 14.8658 -0.469712 -0.836346 0.0837693
233 1 3.34144 9.95191 13.2698 0.552416 0.540988 0.696761
234 1 4.89316 11.5793 14.7886 -0.954941 0.462842 -0.981028
235 1 6.57426 9.85673 13.278 -0.676027 -0.764631 1.06543
236 1 8.16973 11.6205 14.88 -1.53634 1.17 0.00933338
237 1 9.95006 9.97198 13.1718 0.754403 1.13529 -0.275181
238 1 11.6327 11.5354 14.9252 1.04793 -0.333943 0.897663
239 1 13.1712 9.84619 13.263 -0.984143 -1.05848 0.809106
240 1 14.8423 11.479 14.7989 -0.232336 -1.42643 -1.43153
241 1 0.030736 13.2573 13.2796 0.331929 0.720634 1.20694
242 1 1.57471 14.9363 14.862 -1.25287 1.42451 0.359399
243 1 3.22264 13.157 13.303 -1.30844 -0.746496 1.81869
244 1 4.96088 14.9049 14.8169 0.179566 0.724382 -0.724629
245 1 6.59185 13.2903 13.1429 0.0977837 1.34511 -1.10456
246 1 8.33579 14.9192 14.7829 1.32317 1.07465 -1.47622
247 1 9.9353 13.2801 13.1556 0.660732 1.04083 -0.944797
248 1 11.5741 14.7751 14.8626 0.443379 -1.60965 0.195472
249 1 13.3015 13.2555 13.2739 1.75478 0.923154 1.19212
250 1 14.8852 14.929 14.9573 0.259272 1.19069 1.71619
