ITEM: TIMESTEP
760
ITEM: NUMBER OF ATOMS
250
ITEM: BOX BOUNDS pp pp pp
0.0000000000000000e+00 1.6520000000000000e+01
0.0000000000000000e+00 1.6520000000000000e+01
0.0000000000000000e+00 1.6520000000000000e+01
ITEM: ATOMS id type x y z vx vy vz
1 1 16.4596 16.4782 16.4099 -0.845212 2.51516 1.25874
2 1 1.70095 1.72564 1.52896 0.0722372 -1.49845 -1.79654
3 1 3.27533 16.5121 0.00432769 -1.12908 0.168153 -0.718439
4 1 4.84352 1.71807 1.59254 -0.869421 0.667517 1.45735
5 1 6.67502 0.129907 0.0141814 0.199312 0.0814536 2.39512
6 1 8.17709 1.66377 1.7517 -0.896737 -2.34189 0.591038
7 1 9.95574 0.0529903 16.5113 -0.467924 -0.985693 1.03023
8 1 11.5591 1.73133 1.50266 0.0118147 1.43281 1.35631
9 1 13.2879 0.0755977 16.4595 -0.00679501 -0.208649 2.5048
10 1 15.0002 1.62251 1.70095 -1.342 -0.024745 0.206775
11 1 0.00292241 3.20122 16.4296 -2.33506 1.15345 -0.450173
12 1 1.63684 4.94315 1.68672 0.754515 0.547903 0.203349
13 1 3.26241 3.22836 16.4057 1.8131 -0.249565 0.830335
14 1 5.00732 4.98427 1.77784 1.39695 1.37829 -1.0784
15 1 6.50649 3.34962 0.0745785 -0.565982 -0.301589 0.441253
16 1 8.1922 4.94163 1.64821 -0.563884 1.08193 -1.06315
17 1 9.86636 3.40226 0.00304538 -0.279599 -0.566962 -0.332992
18 1 11.565 5.02131 1.76368 -1.95581 -2.5112 2.33335
19 1 13.1629 3.44824 0.030562 -0.960377 0.542408 -1.98134
20 1 14.9237 4.95174 1.59696 1.9907 0.183732 -0.127893
21 1 0.127774 6.61518 0.0431877 0.261115 0.0235692 0.585572
22 1 1.78706 8.35819 1.6986 -0.553356 -0.227075 0.106502
23 1 3.31338 6.58248 0.173878 0.637277 -0.402342 -1.74708
24 1 4.95454 8.31357 1.82175 -1.06527 -0.336858 0.637959
25 1 6.59436 6.72625 0.0824654 1.16313 -0.782658 -0.640403
26 1 8.26079 8.24708 1.68415 -1.45506 1.55989 -2.37321
27 1 9.86469 6.65957 16.497 1.09286 -0.894485 -0.691494
28 1 11.6021 8.26038 1.61915 0.780146 -1.51729 -0.79612
29 1 13.1956 6.69379 0.0575625 -0.0794141 1.00412 -1.34374
30 1 14.9718 8.2545 1.66581 -0.462681 0.132149 0.449958
31 1 0.0073413 10.0548 0.014689 -0.443227 -1.41777 -0.611699
32 1 1.60822 11.6339 1.69152 0.228884 -1.99097 -1.5017
33 1 3.32641 10.0724 0.101813 0.979539 0.871971 -0.592141
34 1 5.03339 11.6376 1.63067 0.332789 -0.976147 0.75253
35 1 6.64817 9.93715 0.0591718 -0.751597 -2.24558 -0.339311
36 1 8.33508 11.514 1.7708 0.122613 -0.112245 -1.48104
37 1 9.93645 9.9994 16.495 0.63353 0.103749 -1.2171
38 1 11.5582 11.6235 1.74707 0.23485 -1.24385 0.103295
39 1 13.2076 9.94448 0.124813 0.8284 -0.444281 2.34295
40 1 14.9668 11.6945 1.69643 0.349994 -1.39354 -1.09314
41 1 0.0811716 13.3223 16.4131 1.54286 0.311367 -1.13359
42 1 1.63671 14.8016 1.65315 -0.957497 0.581493 0.1977
43 1 3.37788 13.2021 16.4919 -0.593445 -0.455974 -0.0848289
44 1 5.12571 14.9818 1.65587 -0.124043 -0.781508 -0.113496
45 1 6.72048 13.2351 0.0112972 1.70911 -0.30491 -0.150494
46 1 8.30238 14.9564 1.64554 0.260536 -0.469129 0.0709994
47 1 9.94002 13.1984 16.4411 0.907922 0.0787847 0.156752
48 1 11.5749 14.9705 1.57614 -0.511919 1.20123 1.063
49 1 13.164 13.3703 16.5013 -0.180126 0.541163 -0.653129
50 1 14.9617 14.874 1.61686 2.43763 1.27089 -0.363797
51 1 0.0841439 16.5122 3.29692 0.99803 -1.04966 1.53699
52 1 1.66819 1.56531 4.83668 0.532533 1.68664 1.41711
53 1 3.3972 16.5068 3.39445 -1.56648 -2.52026 -0.201372
54 1 4.85732 1.70045 5.00332 -1.42363 0.896611 -0.122396
55 1 6.67443 16.5064 3.40378 -1.07121 -2.09731 -1.05085
56 1 8.2091 1.77713 5.01509 0.0217873 -1.51403 -2.46424
57 1 9.88503 0.00149637 3.31641 -0.0881553 -1.06701 0.70733
58 1 11.6026 1.68532 4.8763 -0.347652 0.676885 -0.91019
59 1 13.4021 0.0791805 3.18273 1.04818 -0.319277 0.398852
60 1 14.8306 1.70094 4.86828 -1.4438 0.749476 1.23031
61 1 16.5052 3.36651 3.30533 0.224272 0.346953 -0.53645
62 1 1.72127 5.0042 4.83508 -0.0256216 1.33261 -0.231209
63 1 3.28187 3.36783 3.25043 2.67469 0.134959 0.0102898
64 1 4.98196 4.98087 5.01799 0.264635 0.852146 -0.411125
65 1 6.61584 3.3905 3.30891 -1.76374 1.59462 0.919562
66 1 8.34538 5.00605 4.97956 -0.947922 -0.31055 -2.14261
67 1 9.90142 3.2729 3.33941 0.521081 1.14609 0.56376
68 1 11.4411 4.98508 4.9179 -0.090081 -1.24308 0.498998
69 1 13.1085 3.3364 3.19199 0.232464 0.366834 0.649187
70 1 14.8915 5.0288 4.93632 -0.358177 -0.352504 -2.22147
71 1 16.5019 6.60535 3.43597 1.53029 -0.333352 -0.795969
72 1 1.77952 8.24897 5.04887 -1.19176 -1.24231 0.0999672
73 1 3.34005 6.63241 3.40513 -0.881336 -0.64327 -1.86877
74 1 4.9863 8.27637 5.11449 -0.306361 1.17874 -1.16537
75 1 6.72508 6.64502 3.36756 1.19892 -0.206823 1.7363
76 1 8.31585 8.26789 5.06373 0.30406 0.974993 -1.12058
77 1 9.98873 6.75346 3.39816 -0.052723 -1.18034 -1.8905
78 1 11.5766 8.4025 4.99029 -0.411092 -1.44284 0.882885
79 1 13.2536 6.70035 3.25282 0.285209 -1.18668 0.745199
80 1 14.8243 8.34138 5.102 -1.07428 0.841284 -2.64211
81 1 16.5171 9.98338 3.42551 -0.3198 1.00857 1.12349
82 1 1.70351 11.6062 4.94196 -0.779436 -2.11846 -0.226399
83 1 3.30641 10.0066 3.33149 -2.78899 0.176984 0.294768
84 1 4.90519 11.6187 5.00918 -1.24914 -1.13224 1.46176
85 1 6.70604 9.83075 3.47784 -1.60967 1.60062 -1.5476
86 1 8.36743 11.5498 4.95388 -0.246244 0.0881116 -1.96041
87 1 10.0366 9.82029 3.3873 -0.602903 0.506138 -2.16093
88 1 11.589 11.5874 4.93437 0.5327 3.01406 0.319036
89 1 13.2763 9.98468 3.36707 0.807229 0.954295 -0.810224
90 1 14.9102 11.692 4.97239 0.515727 -0.913983 -0.439455
91 1 0.118636 13.2996 3.32573 0.249243 0.298739 -0.400225
92 1 1.74593 14.7967 4.90689 -1.88546 0.653928 -0.855959
93 1 3.47951 13.0541 3.24017 0.765276 -0.335592 1.03466
94 1 5.00611 14.939 5.01291 1.39945 -0.673465 -0.89399
95 1 6.7393 13.2714 3.2794 -0.175331 -1.46276 -1.67726
96 1 8.35917 14.8149 4.9934 -0.447623 -1.27524 -1.58011
97 1 10.0249 13.2822 3.32369 -0.70416 -1.10122 -0.199189
98 1 11.5367 14.8236 4.93618 -0.062647 -0.592005 0.143747
99 1 13.3423 13.3352 3.19825 1.46475 0.779538 -0.258036
100 1 14.9126 14.8035 4.87393 1.42001 0.761359 0.527555
101 1 16.3628 16.5093 6.59046 -0.71437 0.171587 -1.94794
102 1 1.69784 1.51109 8.14608 1.10347 2.40962 1.79229
103 1 3.32955 0.0216982 6.66863 -0.709284 1.42451 -0.598579
104 1 5.04103 1.60626 8.19265 0.963187 -0.0568742 0.472073
105 1 6.76969 16.3848 6.63123 -0.82999 -1.39808 -0.347233
106 1 8.27519 1.89065 8.27134 -0.0744139 0.840811 -1.49768
107 1 9.85672 0.00483423 6.6123 0.199158 0.437197 -0.728528
108 1 11.5034 1.80981 8.27293 0.0880329 -0.446947 0.349013
109 1 13.0884 0.184661 6.52414 -2.29942 -1.21337 -1.32883
110 1 14.756 1.63576 8.22957 -1.21421 1.80138 0.980797
111 1 16.4739 3.23674 6.41544 0.0718254 -2.1172 1.14923
112 1 1.5791 4.86704 8.34545 0.184105 -1.13214 -0.313923
113 1 3.19973 3.28641 6.65219 0.0460679 -0.131332 2.40991
114 1 5.05898 4.9765 8.32955 2.03514 0.299787 0.291191
115 1 6.56449 3.29021 6.66143 -0.0601261 -0.572753 -0.528339
116 1 8.30408 4.96101 8.29585 1.74987 0.385321 -0.690187
117 1 9.94857 3.32048 6.66764 0.771216 0.134792 -2.25829
118 1 11.5833 4.86375 8.33257 2.53703 0.807936 0.196958
119 1 13.254 3.30863 6.59939 -1.58159 -0.780752 -0.765879
120 1 14.8187 4.94626 8.22974 0.449595 -1.43412 1.0547
121 1 0.050564 6.49848 6.57834 0.293929 0.0645665 1.4343
122 1 1.68728 8.2043 8.31043 0.66277 0.484653 0.717689
123 1 3.28544 6.55532 6.80519 1.05515 -0.262781 0.0420731
124 1 4.92035 8.21362 8.30948 -0.439286 1.16657 -0.1923
125 1 6.6452 6.66583 6.65888 1.78663 0.923341 -1.4716
126 1 8.17246 8.28211 8.37833 -0.0241989 0.963685 -0.660086
127 1 9.92518 6.6297 6.74765 -1.71089 0.384529 -1.87552
128 1 11.5054 8.30242 8.13986 -1.28942 1.45218 0.210336
129 1 13.2245 6.63982 6.60265 -0.630587 0.482082 0.385388
130 1 14.8719 8.06503 8.27391 1.62054 -0.674939 1.8125
131 1 0.0710055 9.83879 6.68061 -0.0482094 -0.28902 1.10679
132 1 1.6987 11.5973 8.3419 -0.421734 -1.42927 2.80496
133 1 3.18097 9.88171 6.85278 -1.91195 -0.112478 0.298575
134 1 5.02534 11.5222 8.2349 -0.96031 0.984245 -1.04066
135 1 6.72153 10.0108 6.8321 -2.91794 1.07025 -2.07607
136 1 8.32493 11.6753 8.45921 -0.76372 0.450659 -1.40253
137 1 9.86262 10.0619 6.61073 -0.486666 -0.453475 1.13175
138 1 11.5951 11.4088 8.17678 1.46493 1.59675 -1.38611
139 1 13.2379 9.95891 6.66697 0.122603 0.438873 -0.297069
140 1 14.9926 11.4531 8.33779 -0.955941 -2.51949 0.669287
141 1 0.100395 13.2411 6.56147 0.619133 -0.251073 1.98029
142 1 1.57967 14.8919 8.259 0.137859 0.253487 -0.294921
143 1 3.32134 13.1843 6.67399 0.87784 0.213387 0.289187
144 1 4.93782 14.8981 8.14697 -1.02826 0.737916 1.8171
145 1 6.61689 13.1732 6.58729 -1.43321 -2.25384 -0.244218
146 1 8.23153 14.7553 8.26366 0.383072 0.811243 -0.760395
147 1 9.95002 13.1593 6.60111 2.41066 -2.02559 -0.289271
148 1 11.5218 14.8658 8.03987 0.0407479 1.16899 -1.7337
149 1 13.3122 13.1797 6.53044 0.265715 2.04656 0.555536
150 1 14.8056 14.7637 8.13362 -0.330166 -0.358456 1.80425
151 1 16.4568 0.0148387 9.75112 -1.421 1.49788 1.30783
152 1 1.61926 1.54571 11.4337 2.08542 2.0633 -0.580165
153 1 3.20929 16.4382 9.9326 -0.496941 1.30632 -0.988675
154 1 5.01571 1.50961 11.5353 -0.0334747 3.03755 0.738633
155 1 6.47606 16.4828 9.65721 0.403269 0.690312 -0.022739
156 1 8.19284 1.52098 11.5458 -1.01712 -0.849812 -0.0848445
157 1 9.88245 16.5071 9.72907 0.647904 -1.33677 0.599933
158 1 11.485 1.56746 11.6257 -2.05705 -2.18877 1.79651
159 1 13.1074 16.3768 9.74068 0.0454365 1.56758 1.23518
160 1 14.8753 1.40948 11.3862 -0.388708 0.729865 0.100191
161 1 0.0876442 3.17967 9.74894 0.113368 -1.1444 0.730165
162 1 1.61132 4.91287 11.5131 1.61237 -0.356759 -1.46118
163 1 3.35134 3.23112 9.86674 0.459739 1.29402 1.4137
164 1 4.892 4.96945 11.5801 2.38632 -2.18274 0.411229
165 1 6.6339 3.32499 9.88823 0.260332 -1.49206 -2.95063
166 1 8.26097 4.83011 11.6417 3.03933 1.68172 0.130335
167 1 9.88536 3.26615 10.0838 -0.454003 -1.63909 0.21219
168 1 11.56 4.95665 11.7752 0.504459 1.05591 -0.327998
169 1 13.1045 3.37458 9.93957 1.17565 0.0751655 -0.364703
170 1 14.9996 4.92867 11.526 0.801096 -1.5946 0.0242959
171 1 0.0687328 6.65209 9.91317 -0.717991 -1.79609 -0.832119
172 1 1.61495 8.31579 11.7206 0.611763 -0.587043 -0.0480565
173 1 3.23864 6.67923 10.0661 -1.24724 -1.34907 0.613386
174 1 4.87076 8.21492 11.6301 0.332701 2.26821 1.02836
175 1 6.61413 6.46882 9.84456 0.626054 0.0552497 1.80078
176 1 8.13517 8.34454 11.5665 1.34171 -0.771592 0.802554
177 1 9.92228 6.52589 9.98443 -0.772526 -0.131392 -1.83639
178 1 11.4754 8.43316 11.4839 -1.02418 -0.367409 0.480469
179 1 13.1578 6.60632 10.0294 0.00762832 -1.32496 0.871771
180 1 14.7815 8.34603 11.5193 0.865468 -0.70427 0.719455
181 1 16.4851 9.76564 9.93895 -1.26472 -1.01238 -2.16753
182 1 1.65069 11.6056 11.6167 0.321785 -1.10237 0.0558314
183 1 3.18423 9.80958 10.1076 -0.704361 -0.852302 0.405652
184 1 4.92877 11.5723 11.62 0.400869 2.64501 -0.243591
185 1 6.57375 9.90102 9.94263 -0.493235 0.948385 0.390202
186 1 8.22072 11.6049 11.6558 -0.946404 0.877831 0.903854
187 1 9.8591 9.89172 9.90438 3.22655 -0.792269 0.433515
188 1 11.483 11.5631 11.6273 0.674964 0.0129979 1.38254
189 1 13.1977 9.82312 9.87328 -1.11852 0.10378 -0.295644
190 1 14.8579 11.4663 11.5843 2.42648 0.505732 -1.62715
191 1 16.5192 13.1315 9.83022 -0.0504224 0.947429 0.0742944
192 1 1.56675 14.8744 11.3543 -0.745635 1.17254 0.525632
193 1 3.31972 13.1886 9.8409 0.128736 -1.35086 -0.645235
194 1 4.92487 14.9524 11.5672 -1.38486 1.01786 2.49156
195 1 6.35997 13.0951 9.99103 1.17818 0.794707 0.451664
196 1 8.22527 14.7298 11.3833 2.16482 -1.25213 0.229873
197 1 9.99484 13.1487 9.91778 0.0277874 0.0329423 -0.998256
198 1 11.4361 14.8355 11.4737 2.60818 0.321309 0.708387
199 1 13.1271 13.039 9.89469 -0.169346 0.0908561 -0.952186
200 1 14.8664 14.618 11.3348 -0.355281 1.11019 0.285565
201 1 16.4664 16.3469 13.1465 -1.18108 -0.640633 -0.617176
202 1 1.59822 1.57316 14.6503 0.016794 -0.70409 -0.0572829
203 1 3.26887 16.4628 13.1044 -0.719096 0.514865 0.556437
204 1 4.8938 1.60728 14.8572 -0.488782 0.908128 0.121517
205 1 6.58652 16.4531 13.2165 0.935363 -0.0253024 0.945079
206 1 8.23171 1.64243 14.7928 -1.25072 0.485992 2.09048
207 1 9.75736 16.4756 13.1546 1.44673 -2.34479 -0.421281
208 1 11.4534 1.59626 14.7128 -1.72183 -0.393412 2.63464
209 1 13.2151 16.3859 13.0651 0.0353337 0.393279 0.450279
210 1 14.8113 1.68278 14.6394 0.0364714 -0.25906 0.224649
211 1 0.0799878 3.23216 13.0656 -0.372683 1.00167 1.2561
212 1 1.71237 4.92625 14.8961 1.57982 1.81912 -1.44294
213 1 3.25106 3.19304 13.1711 0.422367 1.15777 -1.90706
214 1 4.96301 4.97682 14.8601 1.24078 0.431759 -0.418147
215 1 6.61249 3.12102 13.1119 -1.33772 -0.301471 1.07492
216 1 8.28564 5.00691 14.9366 -0.0964879 -0.518578 1.04888
217 1 9.83857 3.38461 13.1837 -0.196356 -0.0599879 3.29834
218 1 11.5301 4.98428 14.7071 0.984205 -0.809246 0.658533
219 1 13.1696 3.30745 13.1531 0.789211 -0.347974 1.55405
220 1 14.8767 4.93832 14.8445 0.732471 -1.50481 0.244882
221 1 0.062454 6.69446 13.3201 -0.0616123 -0.448662 0.29623
222 1 1.69748 8.37067 15.0634 -0.711229 -0.0652909 -0.336499
223 1 3.35274 6.64752 13.3385 -1.03764 0.473127 -1.38316
224 1 4.84718 8.3195 14.9641 -0.0896184 -0.108272 -0.170294
225 1 6.55076 6.58528 13.2461 0.180157 -1.93492 -1.87782
226 1 8.16229 8.23904 14.8597 -2.43294 -0.550192 -2.53196
227 1 9.83169 6.49152 13.184 0.718789 2.79132 0.207076
228 1 11.5585 8.18642 14.8856 -1.01576 -0.595699 -0.861072
229 1 13.3348 6.61354 13.1074 0.196581 -0.476088 -0.385634
230 1 14.8655 8.37301 14.8828 -0.47455 -1.08208 -0.440351
231 1 16.4539 10.0151 13.3179 -0.139914 0.208105 -1.12222
232 1 1.69349 11.5593 14.8185 -0.0225891 0.46251 0.494641
233 1 3.1304 9.9065 13.2945 -0.790663 0.646023 2.2351
234 1 5.17137 11.4961 14.8957 0.623408 -0.0353574 0.775931
235 1 6.51825 9.86525 13.2373 1.42957 -0.573692 -0.709788
236 1 8.27759 11.6208 14.8454 0.274716 0.703227 -0.394821
237 1 9.88929 9.88957 13.1391 -1.98998 -2.45644 -0.703305
238 1 11.6229 11.4784 14.8697 -0.583627 -0.604832 2.42464
239 1 13.2192 9.8504 13.2318 -1.94841 0.338925 0.292231
240 1 14.755 11.5066 14.9119 -0.367208 -0.353496 1.47598
241 1 16.3521 13.1167 13.1343 -1.19701 -1.02425 -0.218872
242 1 1.59465 14.8392 14.7913 -1.38358 -0.676081 0.0255202
243 1 3.39406 13.2721 13.2477 0.39058 1.31588 0.654351
244 1 4.9488 14.891 14.8134 0.395357 0.149627 -1.51641
245 1 6.67761 13.3047 13.2294 1.38394 1.45891 0.406906
246 1 8.22385 14.9298 14.9094 0.920081 2.34521 0.68161
247 1 9.80953 13.2078 13.1746 0.228412 3.20882 0.653984
248 1 11.469 14.9349 14.7317 -0.247523 0.26549 0.38644
249 1 13.159 13.1899 13.2317 0.661421 1.04284 2.40498
250 1 14.7804 14.718 14.7691 -0.905148 1.4989 -0.129198
