ITEM: TIMESTEP
350
ITEM: NUMBER OF ATOMS
250
ITEM: BOX BOUNDS pp pp pp
0.0000000000000000e+00 1.6520000000000000e+01
0.0000000000000000e+00 1.6520000000000000e+01
0.0000000000000000e+00 1.6520000000000000e+01
ITEM: ATOMS id type x y z vx vy vz
1 1 16.4972 0.0418962 0.0432534 -1.37996 -0.977713 -0.4968
2 1 1.69581 1.77087 1.77929 -0.401909 -2.51686 0.730364
3 1 3.28162 16.4444 16.5075 1.43607 -2.94943 2.21379
4 1 4.816 1.58238 1.70631 0.784364 -1.54087 0.427053
5 1 6.51093 16.4272 0.0538854 -0.768515 -0.847196 -0.660643
6 1 8.16863 1.57103 1.70349 1.71406 -0.147717 0.178767
7 1 9.89752 16.2614 0.149595 -0.69844 -1.35385 -0.815226
8 1 11.5811 1.62124 1.73372 -0.865028 -1.28511 1.5767
9 1 13.1915 16.473 0.152992 -0.297528 -2.218 0.264467
10 1 14.8905 1.64812 1.7318 -0.48394 -1.18459 -0.459001
11 1 0.0795879 3.30006 0.0714323 0.815622 0.321102 -0.98729
12 1 1.78523 4.89183 1.58575 -2.2006 -0.651825 1.00092
13 1 3.44229 3.27427 16.4877 1.87171 -0.251306 1.14604
14 1 4.94212 4.93199 1.60111 1.76986 1.77631 0.217776
15 1 6.546 3.16963 0.0101254 -0.183336 0.655657 -1.91352
16 1 8.25489 5.06367 1.65943 -0.747762 -0.427061 -0.278474
17 1 9.85929 3.34309 0.100138 -0.454502 -0.395654 -0.748815
18 1 11.5522 4.95049 1.66316 1.5485 -1.43769 3.0447
19 1 13.2835 3.27837 0.170199 1.63615 0.280185 0.113227
20 1 14.9707 4.87552 1.62169 0.961839 0.346761 -0.465926
21 1 0.0164661 6.59447 16.3253 0.982399 -0.153366 -0.861285
22 1 1.61057 8.21738 1.62711 -0.924123 0.477126 -2.06377
23 1 3.28637 6.65115 16.4282 -0.906094 0.148438 1.05386
24 1 4.86222 8.36425 1.54693 -1.01007 -0.554454 0.135279
25 1 6.64108 6.72708 16.4424 0.205701 0.280292 -0.683936
26 1 8.15183 8.29521 1.58198 -0.711698 0.591598 -0.331349
27 1 9.90679 6.70319 16.5127 0.764198 0.0857489 0.345661
28 1 11.5569 8.25022 1.59047 -1.46855 -0.333374 -0.181949
29 1 13.206 6.60472 16.4756 -0.369751 2.20322 -1.82473
30 1 14.9897 8.22051 1.47744 -0.698066 0.645779 -0.0559308
31 1 0.0850902 9.76895 16.4371 0.115955 -1.06863 -1.21483
32 1 1.50169 11.4655 1.59565 0.477563 -0.406011 0.837519
33 1 3.18973 9.88801 16.3109 -2.10112 1.53314 -1.81541
34 1 4.69786 11.5858 1.61565 -1.70001 -0.346186 0.154661
35 1 6.54536 10.0428 16.3158 0.638978 2.24104 0.241428
36 1 8.20432 11.4958 1.65809 -0.464618 1.37588 0.450074
37 1 9.87349 9.95728 0.0420569 -1.6744 1.5343 0.0874051
38 1 11.6393 11.4774 1.58055 -0.739147 0.126476 0.399235
39 1 13.322 9.99214 16.4717 0.682829 1.64823 0.938722
40 1 15.0044 11.5066 1.65095 0.631986 -0.321077 1.50234
41 1 0.00508132 13.178 0.0510161 -0.690749 -0.0322591 -0.334968
42 1 1.53578 14.8755 1.65213 -1.07574 0.213023 0.916144
43 1 3.24293 13.2162 16.4532 -0.532793 -1.49345 -1.68061
44 1 4.73659 14.7513 1.78929 -1.21988 1.36696 1.57363
45 1 6.48522 13.1845 16.493 0.550927 0.293428 0.313324
46 1 8.17336 14.7504 1.69171 0.361567 -1.73106 -1.03956
47 1 9.88493 13.2512 16.479 0.157984 1.07192 1.09457
48 1 11.6044 14.765 1.87288 0.693071 -2.01226 -1.04942
49 1 13.463 13.2393 0.0332251 0.511732 -0.228504 -0.245044
50 1 14.856 14.8536 1.79095 0.88091 -0.125221 -1.98263
51 1 0.0208538 0.116082 3.2905 -0.771223 2.64189 2.14264
52 1 1.67511 1.74996 5.04207 -0.082143 -0.227366 -0.772537
53 1 3.24808 16.4599 3.41903 1.31256 1.83004 1.11577
54 1 4.95615 1.7576 4.92753 0.953093 0.0848378 1.28813
55 1 6.46768 16.4926 3.32806 -1.22367 1.31398 -0.556976
56 1 8.10983 1.5735 4.93968 -2.63483 0.259623 -0.418698
57 1 9.89228 16.4649 3.33683 1.17887 -0.892951 -1.74666
58 1 11.5366 1.57938 5.00964 -1.21542 0.695111 1.79191
59 1 13.1593 0.0260706 3.40372 0.71601 0.374594 1.13018
60 1 14.9226 1.72734 5.04935 -2.15318 1.06414 1.06349
61 1 0.063728 3.30764 3.38395 1.39598 -1.25054 0.0670674
62 1 1.80385 4.98087 5.08829 0.86528 0.00610895 0.733333
63 1 3.30953 3.34847 3.45216 -0.490929 -1.31147 0.107793
64 1 5.03262 4.97079 5.02817 1.13284 1.42069 -0.156464
65 1 6.59221 3.34258 3.26936 -0.540942 1.0602 0.00110077
66 1 8.16617 5.02941 4.8811 0.957785 0.591525 0.650966
67 1 9.7614 3.37543 3.32832 -0.094298 -0.143817 1.88374
68 1 11.5267 4.98715 4.96481 1.45506 0.628917 1.16446
69 1 13.2938 3.36121 3.3499 1.74144 0.663986 2.53804
70 1 14.8947 4.96681 4.97555 0.266678 -1.5277 1.68248
71 1 0.0702449 6.49021 3.24845 1.52574 0.48921 -0.568372
72 1 1.67424 8.11114 4.90226 -0.625125 -1.09445 0.198239
73 1 3.37004 6.56787 3.27154 2.04609 -0.286052 1.75299
74 1 4.86933 8.37453 4.87512 -0.623935 1.83214 0.917278
75 1 6.56984 6.60343 3.27351 2.35002 -2.30623 1.26208
76 1 8.21305 8.40893 4.85724 -0.124741 1.80852 -0.117759
77 1 9.87432 6.68491 3.18429 0.899133 -0.252668 -0.919867
78 1 11.6067 8.31096 4.94091 -0.429673 1.506 -1.17582
79 1 13.2491 6.65044 3.2532 0.194235 2.07546 -0.499436
80 1 14.8256 8.08309 4.87696 -1.77848 -0.833021 -1.08191
81 1 16.5112 9.82223 3.33146 1.10358 -1.2588 3.2445
82 1 1.52831 11.4912 5.06997 -1.71646 -0.300727 -1.00498
83 1 3.1464 9.96252 3.32208 1.45749 1.6369 -0.543843
84 1 4.83126 11.5072 5.01253 -1.03611 -1.41657 1.26581
85 1 6.51437 9.88179 3.26794 -0.80318 -0.182172 0.716783
86 1 8.2067 11.4933 4.96286 -0.592994 0.0911988 1.21191
87 1 9.92584 9.80469 3.29016 -0.311302 -2.81002 1.07351
88 1 11.5877 11.4637 4.96898 -0.428159 -1.23259 2.70722
89 1 13.2641 9.86934 3.30148 -1.65372 0.9904 0.273063
90 1 14.9338 11.4276 5.03561 -0.99224 0.217481 0.777138
91 1 0.0130744 13.1613 3.36771 -0.524175 -1.19372 0.363733
92 1 1.66772 14.8736 5.10746 -0.0216387 0.0770379 -0.0584816
93 1 3.06622 13.1844 3.46385 1.53437 -0.261051 0.433561
94 1 4.76561 14.6988 4.97888 0.042792 1.05711 1.12325
95 1 6.55082 13.0692 3.32287 0.388378 0.301856 0.932039
96 1 8.21466 14.7702 4.88234 1.19896 -0.648307 -1.16568
97 1 9.90208 13.1022 3.30111 -0.114926 -1.44128 -0.070426
98 1 11.5747 14.7029 4.92791 0.250872 -0.613503 0.968598
99 1 13.3269 13.1191 3.38057 -1.64089 0.385925 0.879862
100 1 14.8918 14.8384 4.93529 -1.7557 -0.188959 0.0401669
101 1 16.416 0.0278274 6.67371 0.15291 -0.428166 -1.12559
102 1 1.65751 1.48239 8.33228 0.521418 -0.399872 0.609679
103 1 3.34373 0.0157683 6.7367 -0.51245 -0.580562 1.2549
104 1 5.01053 1.67668 8.24134 -0.97475 -0.460533 1.63596
105 1 6.52805 16.3956 6.53661 -1.77585 1.11473 0.0790076
106 1 8.20706 1.56728 8.13097 -0.864328 -0.782912 0.534986
107 1 9.8709 16.3904 6.46285 -0.490996 -1.35959 -0.64528
108 1 11.4652 1.57971 8.13973 -0.46269 -1.38517 -1.55898
109 1 13.1859 16.499 6.54747 1.36861 -1.40635 -1.40109
110 1 14.7994 1.71129 8.34746 -0.3491 0.809296 0.603835
111 1 0.0472141 3.25853 6.73366 1.38783 0.241292 -0.462091
112 1 1.70301 5.11847 8.29063 0.0289151 1.30965 -1.00346
113 1 3.44686 3.27853 6.65519 0.773222 -1.94715 1.90849
114 1 5.11728 4.96463 8.23029 0.47217 0.788278 -2.08968
115 1 6.6 3.34772 6.60456 -0.297437 -0.355651 -0.868581
116 1 8.28848 5.04574 8.14417 -0.428702 0.37256 1.3921
117 1 9.77727 3.33602 6.56959 -2.69156 -0.532042 1.34089
118 1 11.5092 4.95499 8.14827 1.93221 -0.660296 -1.89562
119 1 13.2031 3.29712 6.67593 0.0868116 -1.73871 3.11983
120 1 14.816 4.9202 8.27556 1.49628 1.22727 0.315618
121 1 0.0132681 6.66848 6.69089 0.130363 1.81899 -0.603718
122 1 1.60441 8.303 8.37765 -0.690196 2.34061 0.0271862
123 1 3.32102 6.66211 6.73278 0.169919 -1.74267 1.51316
124 1 4.9625 8.4515 8.32699 -0.55742 2.07657 0.517263
125 1 6.66199 6.76016 6.55051 0.1676 1.15271 -0.863097
126 1 8.26813 8.39269 8.19866 0.644079 0.027424 -0.377646
127 1 9.91751 6.71269 6.49885 -0.714864 0.405559 0.530392
128 1 11.5779 8.29379 8.18671 0.158817 -1.2076 -0.308704
129 1 13.2239 6.61962 6.5349 0.14513 0.738061 -0.920638
130 1 14.7813 8.24274 8.38799 0.116732 -0.474492 0.845598
131 1 16.4832 9.8275 6.66205 -0.763927 1.25413 -1.20447
132 1 1.59012 11.5257 8.29919 0.0626876 0.0178705 -0.697943
133 1 3.24182 9.85533 6.67953 -1.42016 1.77297 -0.322394
134 1 4.98835 11.5975 8.28468 -0.142261 0.52807 0.350971
135 1 6.54277 10.0136 6.667 -0.630416 -0.931785 0.0635368
136 1 8.24282 11.5824 8.20668 1.26911 0.0358377 -1.02354
137 1 9.91574 9.84941 6.50545 0.218477 -0.581434 1.00946
138 1 11.601 11.5434 8.26228 0.931554 1.43493 0.649683
139 1 13.3005 9.88344 6.62193 -0.371687 -0.476102 0.0773127
140 1 14.8131 11.5549 8.29823 2.02973 1.93193 0.848648
141 1 0.0276753 13.3438 6.7487 0.684367 -0.334921 -1.42788
142 1 1.67476 14.9131 8.43237 -0.244203 -1.38122 1.4854
143 1 3.18754 13.1901 6.74818 0.615181 -0.329478 2.1526
144 1 4.9996 14.904 8.26891 -0.272129 -0.852985 0.378139
145 1 6.53053 13.194 6.51409 -1.16489 0.666607 -1.1749
146 1 8.29147 14.8473 8.17031 0.75076 -0.53052 -1.33334
147 1 9.95568 13.1211 6.59621 -2.41292 1.02041 2.64229
148 1 11.5994 14.8976 8.27566 0.567193 -0.909102 -0.3231
149 1 13.2811 13.097 6.6383 -0.481003 0.146122 0.0846624
150 1 14.8233 14.8619 8.30372 -0.992318 -1.5621 1.40278
151 1 16.4751 0.0229966 10.019 -0.76941 -2.19617 -0.00400292
152 1 1.69771 1.70732 11.5116 2.16746 1.52268 0.249813
153 1 3.27806 0.0117263 9.99042 1.08505 1.25828 3.34537
154 1 5.08782 1.65123 11.6162 -0.593745 -1.51108 -2.11262
155 1 6.76141 16.4536 9.98611 -0.44302 -0.61734 1.01129
156 1 8.33021 1.61436 11.5644 -1.34589 1.76755 0.880368
157 1 9.9388 16.5176 9.82734 1.02311 -0.361919 -0.20762
158 1 11.4361 1.63359 11.5479 1.64378 -1.18588 -0.984866
159 1 13.1522 0.0241179 9.92664 0.502486 -0.29962 0.603967
160 1 14.7693 1.62662 11.5771 0.944405 -0.442223 -1.32308
161 1 0.0111873 3.26849 9.8587 -0.718775 -0.0220581 -0.60163
162 1 1.713 4.87307 11.5319 0.128693 -1.19148 -2.24542
163 1 3.4884 3.37986 9.80011 -1.08022 0.0982721 -0.546983
164 1 5.19453 4.89439 11.4133 1.80015 -0.326563 -0.747781
165 1 6.7174 3.28782 9.77311 -1.439 -0.922677 1.0709
166 1 8.34526 4.92723 11.4784 0.920834 1.06921 -2.12881
167 1 9.92423 3.34446 9.61338 0.87934 0.772629 -1.96665
168 1 11.3888 4.91061 11.4431 0.679768 -0.854618 -2.07899
169 1 13.115 3.2691 9.89636 -0.676181 0.092456 -0.230156
170 1 14.8004 4.85858 11.5271 0.255387 -0.918155 -0.430417
171 1 0.00312891 6.57431 9.98817 0.143437 0.796691 0.916218
172 1 1.62513 8.22248 11.5311 0.309108 0.599969 -2.36737
173 1 3.41474 6.66912 9.99865 1.20306 -0.429376 2.2206
174 1 5.12379 8.32535 11.4762 1.25343 2.35732 -0.556806
175 1 6.82988 6.6626 9.82292 0.0856641 -0.277408 -0.215614
176 1 8.33958 8.38304 11.5795 -1.25063 -0.220893 -0.0636811
177 1 9.89448 6.59154 9.91664 -1.26309 2.52058 -1.04788
178 1 11.5224 8.13081 11.5797 -0.948067 -0.253629 -1.46768
179 1 13.1524 6.59654 9.8953 -1.11201 0.636622 1.3684
180 1 14.8606 8.22822 11.6045 -0.00286489 0.798726 0.312908
181 1 16.4715 9.96381 9.99688 -2.56692 1.84758 -1.71222
182 1 1.67925 11.6181 11.5172 0.955754 0.623957 -0.867753
183 1 3.31497 10.0513 9.92302 0.138939 1.51394 -0.863553
184 1 4.96422 11.7442 11.5322 -0.502991 1.01979 -0.876002
185 1 6.75873 10.0656 9.87771 -0.0644115 -1.52753 -0.589618
186 1 8.36553 11.6214 11.5364 0.977824 0.437092 0.964666
187 1 9.90699 10.0058 9.84545 -0.966651 -1.04297 1.19945
188 1 11.6853 11.6163 11.4909 1.1343 1.4335 -0.866609
189 1 13.1624 9.87875 9.9067 -0.922425 -0.555447 0.560022
190 1 14.844 11.5218 11.5707 1.12376 -0.459236 -1.86778
191 1 16.4933 13.2536 9.97726 2.96906 -1.3028 -0.836502
192 1 1.63388 14.9425 11.6136 1.30003 -0.492153 0.177805
193 1 3.35199 13.2799 9.92365 2.97239 -0.910836 -0.863552
194 1 5.02392 14.9426 11.5226 0.656825 0.303085 -0.965208
195 1 6.69753 13.29 9.93486 1.21558 -0.0680822 -0.805649
196 1 8.45691 14.9283 11.5402 -0.178496 0.554884 -0.823449
197 1 9.94563 13.1828 9.82893 1.00213 0.0795574 -0.298863
198 1 11.6046 14.9103 11.6806 -0.511894 0.594341 -1.31918
199 1 13.2456 13.2921 9.89081 -2.0078 0.932853 2.45102
200 1 14.9147 14.9495 11.6384 0.242605 -0.214708 -0.531989
201 1 0.00411572 0.137995 13.3126 -1.50327 0.333373 1.29257
202 1 1.81765 1.7128 14.9355 1.22211 0.0995955 0.117799
203 1 3.24216 0.0602029 13.2009 -1.55762 -0.585343 -0.315783
204 1 4.97237 1.6044 14.8178 -0.612587 0.694411 -2.45282
205 1 6.65493 16.4512 13.1853 0.17474 -0.608465 -0.067058
206 1 8.16161 1.58576 15.0214 -0.846342 -0.619992 -2.19818
207 1 9.92377 16.5005 13.2731 -1.38381 0.0633609 -0.290502
208 1 11.4855 1.63149 15.0384 -1.60485 -0.192437 1.97054
209 1 13.0372 0.0826818 13.3566 -1.1212 0.534989 1.23929
210 1 14.7614 1.63605 14.9421 -1.77781 -1.85287 1.1934
211 1 16.5068 3.35811 13.3078 -0.760721 0.519352 -0.687791
212 1 1.73717 4.87083 14.7898 1.5165 1.3798 -0.0899984
213 1 3.47413 3.36802 13.2174 -0.626063 0.498213 1.05605
214 1 5.12596 5.0709 14.8201 -0.157622 0.922074 1.30466
215 1 6.69584 3.34152 13.244 0.262259 -0.115373 -1.12329
216 1 8.21527 4.9152 14.8941 -0.988674 -0.420587 -0.406739
217 1 9.9202 3.28694 13.2603 -0.426781 -0.18812 -0.0656346
218 1 11.4503 4.94612 14.9393 0.143962 0.130796 0.135763
219 1 13.062 3.33683 13.276 -1.73945 3.00483 -0.453701
220 1 14.841 4.88638 14.8973 -0.163474 0.164164 1.36537
221 1 16.4686 6.5252 13.0892 -1.24056 0.234204 -0.185406
222 1 1.70773 8.22705 14.6436 0.416528 -0.5675 -3.00096
223 1 3.37455 6.52671 13.0574 2.19837 -1.68325 -0.69068
224 1 4.90244 8.31544 14.6954 0.921542 -0.198354 -0.528125
225 1 6.75707 6.61806 13.1243 0.501838 -0.286683 -0.530763
226 1 8.33366 8.33969 14.7765 -0.143468 0.565644 0.753301
227 1 9.84546 6.48548 13.1967 -1.20987 -0.451799 0.351726
228 1 11.5537 8.21576 14.8734 -0.293824 1.0518 0.821526
229 1 13.162 6.50733 13.2314 -0.810701 -0.556786 -0.144182
230 1 14.8491 8.27195 14.7988 -2.56367 0.833576 -1.97927
231 1 16.4431 9.91441 13.1012 0.218597 1.37661 -0.956029
232 1 1.58037 11.5634 14.802 -1.20161 -2.44477 -0.851928
233 1 3.36452 9.93917 12.9843 -1.75604 0.253562 -0.916263
234 1 4.92223 11.6284 14.7348 -1.69065 0.365395 -1.03996
235 1 6.58684 10.0557 13.1966 0.681867 -0.179395 0.328708
236 1 8.25831 11.6227 14.8001 -0.273161 1.37005 0.73506
237 1 10.0634 10.0216 13.2102 -1.08179 -1.56035 -1.86041
238 1 11.6231 11.6183 14.974 2.81623 -0.322116 -1.62691
239 1 13.245 9.86604 13.2127 1.39705 -0.326591 0.185438
240 1 14.9012 11.547 14.8101 1.20253 -1.55685 0.986622
241 1 0.0682091 13.2255 13.2278 3.9581 1.38411 0.150776
242 1 1.5114 14.9283 14.8493 0.921913 0.115148 1.17988
243 1 3.29659 13.336 13.1951 1.18163 -1.75781 -0.056633
244 1 4.95237 14.8236 14.8092 -0.67273 0.182044 -1.85172
245 1 6.70609 13.3484 13.2132 1.00944 0.0971849 -0.324387
246 1 8.25758 14.8635 14.8944 0.663303 -2.68394 -0.468202
247 1 10.0291 13.2555 13.2901 -0.288996 0.0960584 -2.05803
248 1 11.5644 14.87 14.9418 0.53062 1.56376 -1.79533
249 1 13.2357 13.3354 13.3108 3.87886 1.61084 0.633045
250 1 15.016 14.9624 14.9082 -0.859125 -0.84949 0.14421
