ITEM: TIMESTEP
280
ITEM: NUMBER OF ATOMS
250
ITEM: BOX BOUNDS pp pp pp
0.0000000000000000e+00 1.6520000000000000e+01
0.0000000000000000e+00 1.6520000000000000e+01
0.0000000000000000e+00 1.6520000000000000e+01
ITEM: ATOMS id type x y z vx vy vz
1 1 16.4928 16.4131 16.3833 0.576321 -0.115643 -1.87765
2 1 1.65719 1.5596 1.60291 -2.04273 -0.0315169 -1.36718
3 1 3.3424 16.4453 16.4635 0.901125 0.952844 -0.125151
4 1 4.97379 1.65718 1.59569 0.781429 2.35546 -0.735392
5 1 6.61172 16.51 16.3823 1.85632 2.10575 -0.213329
6 1 8.38459 1.74514 1.43111 -1.06081 1.49623 1.45968
7 1 9.95889 16.4756 16.3532 -1.12484 -0.161309 0.222047
8 1 11.5879 1.77641 1.54035 1.40635 -0.228608 0.153604
9 1 13.0967 16.4153 16.2974 -0.019969 1.29588 2.07145
10 1 14.8677 1.53083 1.4765 0.446865 0.613304 -0.809655
11 1 0.00293126 3.17705 16.5035 1.54772 0.466976 -0.794164
12 1 1.64259 4.99027 1.6434 0.018712 -0.283217 1.34413
13 1 3.29221 3.30356 0.0977064 -1.20282 -1.1014 2.308
14 1 4.96955 4.88705 1.70194 -2.0729 -0.270169 1.10539
15 1 6.60274 3.288 16.4904 0.128786 -0.971475 -0.370712
16 1 8.42729 4.87656 1.58574 -0.0958265 -0.6038 -0.173659
17 1 10.0118 3.27935 16.4239 -0.358137 1.7445 -0.160333
18 1 11.7435 4.93327 1.64328 0.114931 -2.21812 -0.769178
19 1 13.2852 3.31802 16.5024 0.565048 0.0582189 1.27158
20 1 14.9797 5.09225 1.58739 -1.2368 -0.552795 0.466286
21 1 16.4778 6.77101 16.4899 -2.04705 0.741331 -0.363085
22 1 1.70506 8.31155 1.94575 -0.703422 0.827619 -1.48842
23 1 3.20197 6.67297 0.194971 -1.44118 -0.966536 1.95567
24 1 5.10165 8.33114 1.76161 -0.108085 -1.62226 -0.260434
25 1 6.62252 6.58038 0.163329 1.11021 0.0545156 -0.513656
26 1 8.21712 8.13986 1.70707 -1.6066 -1.10972 -0.93906
27 1 9.93884 6.55685 0.00612688 1.094 -1.05696 -0.391237
28 1 11.5381 8.34431 1.65357 -0.509482 -1.7733 -1.02253
29 1 13.1917 6.69288 0.106351 -0.894884 -0.930067 0.233489
30 1 14.8248 8.4545 1.70157 1.33048 0.0960761 -1.17977
31 1 0.0319549 9.93379 0.113952 -1.43835 -1.30662 1.71724
32 1 1.74523 11.6357 1.68644 -1.36638 0.660801 -0.868132
33 1 3.31827 9.89064 0.0912353 0.643898 -0.0113067 -1.91707
34 1 5.05806 11.659 1.77943 0.360578 0.56401 -1.78493
35 1 6.60795 9.95846 0.0770026 0.692205 -0.212701 0.0205482
36 1 8.36103 11.6445 1.81179 0.878511 -0.956451 2.05542
37 1 9.8143 9.98487 0.0912362 0.939727 0.736755 -0.10073
38 1 11.4403 11.6343 1.68644 0.415421 -2.861 -0.555958
39 1 13.0953 10.1232 0.0450327 0.415174 -0.177725 3.11032
40 1 14.8179 11.6184 1.78181 0.440747 0.608058 1.10959
41 1 0.0659267 13.1672 0.139262 0.896551 -0.436753 -1.23427
42 1 1.7511 14.8797 1.61367 -1.43998 -0.442518 0.808819
43 1 3.38819 13.2621 0.100076 1.62307 0.582748 -1.69319
44 1 5.15447 14.9265 1.69705 -0.714072 0.365042 -0.330394
45 1 6.63141 13.2414 0.0770363 -2.26365 1.52239 -0.0184611
46 1 8.3245 14.9528 1.61349 -0.629156 0.604471 -0.105521
47 1 9.92872 13.1804 16.329 2.89275 0.24212 -1.52616
48 1 11.5322 14.8056 1.62613 1.69396 2.15723 -0.143324
49 1 13.2768 13.2057 16.3949 -1.10771 -0.696247 0.0171545
50 1 14.7326 14.8344 1.69176 1.39736 -0.308178 -0.233475
51 1 16.4954 16.4463 3.1067 -1.05188 0.381291 0.805643
52 1 1.6297 1.52083 4.93543 1.21091 2.09611 -1.288
53 1 3.37714 16.4851 3.33794 0.60872 -0.2999 1.22492
54 1 5.05473 1.69824 4.88419 -1.29512 1.05977 0.274805
55 1 6.735 0.125438 3.25093 1.55818 0.799331 1.05017
56 1 8.3177 1.68936 5.07257 -0.316175 -1.76063 -0.644894
57 1 9.9536 0.216011 3.24772 0.896955 -1.02559 -0.30621
58 1 11.6037 1.68744 5.10371 -0.910148 -0.994782 -1.62649
59 1 13.1323 0.100228 3.29185 1.52153 -0.786497 -2.06388
60 1 14.8834 1.63893 4.98753 -1.1182 2.09459 -0.441015
61 1 16.399 3.28392 3.2803 -1.54102 -1.49436 -0.761181
62 1 1.67855 4.91446 4.94925 0.553989 -0.604487 -1.47288
63 1 3.39318 3.27124 3.31377 -0.47675 -0.275881 -1.67345
64 1 5.02641 4.90984 5.08537 -1.16198 -0.143462 -1.55393
65 1 6.82229 3.34886 3.21778 -2.29149 0.585881 -0.119661
66 1 8.32214 4.88986 5.12805 1.28109 -0.560799 -0.100671
67 1 10.0655 3.28993 3.40827 -1.22733 0.942715 0.604816
68 1 11.5918 4.85396 5.14172 -0.450518 0.672257 0.377213
69 1 13.2057 3.28715 3.40786 0.963028 0.379383 -1.5103
70 1 14.9365 5.03461 4.91868 -1.47308 -0.102278 -1.02049
71 1 16.4975 6.59196 3.29143 0.158024 1.78502 0.932542
72 1 1.76031 8.29559 4.88747 1.18967 -0.392403 0.625379
73 1 3.34539 6.58252 3.27813 -1.59268 2.19309 0.658689
74 1 5.01379 8.1686 4.99512 -0.78754 0.794963 -0.119972
75 1 6.60137 6.59078 3.43858 2.09931 -0.509315 1.64726
76 1 8.32199 8.13723 5.10681 1.208 2.08248 -0.632841
77 1 10.0654 6.48532 3.42289 -1.12602 -0.534137 -1.87708
78 1 11.5674 8.21384 5.10578 -1.32025 1.0956 -0.141455
79 1 13.1823 6.6572 3.25503 1.59021 1.81691 0.654627
80 1 14.7936 8.34927 4.90102 -0.677941 -1.16869 0.374089
81 1 16.4357 10.0147 3.39949 1.47103 -0.162307 0.608537
82 1 1.80926 11.665 4.89569 1.36909 0.606299 -2.56188
83 1 3.38924 10.0111 3.33787 0.676283 -0.202622 -0.444861
84 1 5.16381 11.5931 4.97193 0.204966 -0.510534 0.909429
85 1 6.68681 9.87688 3.38603 0.864522 -2.32592 -0.520175
86 1 8.32634 11.5555 5.14507 0.126676 0.940424 -0.232571
87 1 9.89015 9.95219 3.42612 0.423181 -0.832025 -0.0469843
88 1 11.4078 11.6529 5.09421 -0.347213 1.38481 -0.148378
89 1 13.0549 10.0136 3.37125 0.802394 0.970213 -0.369407
90 1 14.8138 11.6354 4.96914 -1.20033 -1.20532 -0.909346
91 1 0.0373614 13.3512 3.30019 -1.07042 -0.212998 -1.75354
92 1 1.74575 14.9825 4.85304 1.3966 -3.44566 -1.35883
93 1 3.41379 13.2735 3.34376 2.75927 1.36325 0.0725944
94 1 5.0653 14.9771 4.99607 -0.639283 -0.0939743 0.8626
95 1 6.83097 13.3013 3.38309 0.384411 0.524671 -0.428017
96 1 8.27868 15.081 4.95525 0.419016 1.23077 -0.488687
97 1 9.93533 13.2728 3.37236 1.99895 -0.808974 0.254889
98 1 11.5301 14.8232 5.0254 0.168328 -0.181573 -1.41062
99 1 13.1342 13.1468 3.34435 0.790346 3.90706 -1.33013
100 1 14.9128 14.8669 4.79753 1.8202 -0.221666 0.150708
101 1 16.423 16.3474 6.47932 -0.295778 1.68741 0.108111
102 1 1.56263 1.44746 8.17586 -0.233712 0.0479587 -0.500598
103 1 3.34539 0.0315402 6.60592 -2.10175 -0.159186 1.90031
104 1 4.8505 1.56011 8.3927 0.0129577 2.09813 -1.66188
105 1 6.57331 0.00786065 6.6741 1.39367 -0.267353 1.45806
106 1 8.08667 1.63151 8.40042 1.53886 1.56873 2.53027
107 1 9.8344 0.0120321 6.65349 0.285901 0.911966 -0.600467
108 1 11.541 1.52375 8.31362 -1.15725 -0.209567 0.700822
109 1 13.2319 16.4588 6.65164 1.19939 1.17352 0.0362817
110 1 14.956 1.51335 8.26955 0.202416 2.89561 -0.259566
111 1 0.079106 3.28877 6.62796 0.387532 -0.945294 -2.33634
112 1 1.58453 5.04407 8.16988 -0.986762 -0.158603 -0.44217
113 1 3.17087 3.25307 6.60673 1.33232 -1.4204 -3.70352
114 1 4.85573 4.96115 8.28016 1.60202 -1.91175 -1.27087
115 1 6.66016 3.26287 6.78429 -0.269812 1.13003 -0.504477
116 1 8.19982 4.97364 8.33253 0.0647391 -1.69007 2.36185
117 1 9.8449 3.25271 6.82186 -1.64817 1.80912 -0.422183
118 1 11.6238 5.05554 8.32758 -0.297763 -1.17292 -0.254288
119 1 13.2444 3.35559 6.73263 -1.64367 -0.563908 0.251819
120 1 14.9396 5.08459 8.22127 -1.17616 -0.0451045 -0.169509
121 1 16.5065 6.74782 6.51099 -0.102111 -0.155861 0.371186
122 1 1.56608 8.33733 8.23159 1.55638 -1.01209 0.213816
123 1 3.34709 6.67428 6.60071 -1.0521 -2.87187 2.06138
124 1 4.84012 8.16889 8.26482 -1.62788 -1.18663 -0.825001
125 1 6.60178 6.62788 6.70657 1.91651 -1.30839 -0.612484
126 1 8.18529 8.11339 8.34126 -0.255212 -0.150147 -1.72608
127 1 9.97391 6.57963 6.71516 -0.199707 -0.830966 0.0171215
128 1 11.5308 8.27075 8.31694 0.941963 -0.315403 -1.78864
129 1 13.3033 6.6225 6.62548 -0.74749 -0.0485512 -1.74714
130 1 14.8438 8.3969 8.25489 -0.972656 -2.39959 0.58104
131 1 16.4351 9.91645 6.42028 0.19119 1.41062 0.269631
132 1 1.66461 11.571 8.03137 0.895375 -0.971158 1.72625
133 1 3.29266 9.85449 6.5437 -0.651205 0.618275 0.582454
134 1 5.03474 11.5152 8.19978 1.59612 -1.45152 1.06227
135 1 6.57704 9.83749 6.70305 0.867004 1.81948 2.63371
136 1 8.12251 11.5539 8.2685 0.0209165 -1.68563 0.15272
137 1 9.87601 9.86309 6.78319 1.23109 -0.419489 -1.30202
138 1 11.3803 11.5065 8.41104 1.96058 -0.799189 -1.58649
139 1 13.2491 10.0039 6.6767 1.89479 0.158384 1.20854
140 1 14.8164 11.655 8.18152 -2.26517 -0.0824068 0.110828
141 1 0.0966976 13.3752 6.47625 0.689372 0.72765 0.0679986
142 1 1.77451 14.7543 8.18041 -0.930287 0.190984 1.08718
143 1 3.37661 13.1699 6.58119 -2.02939 -0.662967 -0.637819
144 1 5.05217 14.9258 8.27402 -0.839702 1.09195 -0.597926
145 1 6.721 13.3119 6.6242 -1.10766 -0.915771 -0.669071
146 1 8.22961 14.9233 8.28366 -0.39737 0.747853 -0.441588
147 1 9.94378 13.2404 6.75512 -0.0852883 -0.806645 -0.278389
148 1 11.5003 14.9499 8.36604 1.76847 1.47733 -0.332556
149 1 13.1697 13.2308 6.65087 1.67743 -1.42711 0.0668743
150 1 14.9711 14.7316 8.11362 -0.926059 -1.42893 -0.151513
151 1 16.4965 16.3396 9.86693 0.978996 0.6719 -1.84066
152 1 1.40903 1.66424 11.5088 0.205564 -2.03973 -0.699774
153 1 3.2275 16.3776 9.88184 -1.39834 -0.415823 -1.14958
154 1 4.74323 1.6507 11.6941 1.80014 -1.18358 0.914507
155 1 6.50859 0.0335973 9.98033 2.11227 -1.61319 -1.95298
156 1 8.23461 1.76103 11.4971 0.556571 -1.16082 0.923282
157 1 9.85792 0.0303663 9.90746 0.127036 1.95015 0.54536
158 1 11.513 1.74267 11.4754 0.770424 -1.46419 1.68048
159 1 13.3194 16.4102 9.84491 -1.08673 0.810682 -2.34582
160 1 14.8488 1.54969 11.5846 1.14607 -2.45579 -0.579138
161 1 0.1616 3.31341 9.7712 -0.435875 -0.696 -0.656318
162 1 1.57129 4.88306 11.6271 0.683401 0.560594 1.08419
163 1 3.14144 3.3388 9.78364 1.99897 2.58136 0.205377
164 1 4.79181 4.93641 11.5341 0.965371 -2.4236 1.55429
165 1 6.50455 3.22396 9.95221 -0.133902 0.744107 0.730958
166 1 8.18218 4.85484 11.5087 2.02236 2.05163 0.950928
167 1 9.95468 3.23903 9.80836 1.63473 1.15433 2.51427
168 1 11.619 5.07591 11.5047 -1.65347 1.13069 -0.0868697
169 1 13.3685 3.27621 9.91249 -0.815896 0.528744 1.6049
170 1 14.9092 5.03166 11.5254 0.303845 1.02144 0.405484
171 1 0.0148953 6.74017 9.87491 0.727094 -0.13263 0.992344
172 1 1.62619 8.30918 11.5923 -0.234034 -0.254974 0.466283
173 1 3.28686 6.70211 9.8875 1.59838 -0.531849 1.45086
174 1 4.9392 8.14901 11.5783 -0.949884 1.9402 1.68371
175 1 6.45723 6.6077 9.85361 -1.07888 -2.11943 -1.01941
176 1 8.07634 8.23453 11.6627 -2.06568 -0.369443 -0.840469
177 1 9.9114 6.59746 9.88206 1.24293 -1.17953 0.71657
178 1 11.4756 8.24136 11.6301 0.613345 0.154861 -0.0419071
179 1 13.3442 6.69079 9.86294 -0.495658 0.201822 0.626946
180 1 14.8503 8.35088 11.5252 2.28317 0.0756712 1.6769
181 1 0.051747 10.0509 9.80066 -0.423046 -1.04474 0.489196
182 1 1.77995 11.5139 11.5018 -1.97512 0.00982203 0.492573
183 1 3.28103 9.92059 9.90225 -1.96163 -0.0635842 0.0491135
184 1 5.00413 11.4554 11.5994 -2.03265 -0.739913 0.628801
185 1 6.56505 9.84809 9.96132 1.40671 0.000146619 -1.24939
186 1 8.12694 11.3889 11.567 -2.05966 0.204413 -0.742425
187 1 9.84883 9.79947 9.91789 -0.25529 1.93312 -1.32941
188 1 11.5748 11.4393 11.5265 0.25972 0.140812 2.11299
189 1 13.1512 9.9322 9.93707 -0.71924 -0.480985 -2.49174
190 1 14.8985 11.654 11.5394 0.969048 -1.03219 1.01429
191 1 0.104204 13.1315 9.84176 0.236618 -0.0415122 0.466077
192 1 1.72293 14.7 11.5764 -0.00694386 1.62606 -0.310639
193 1 3.42973 13.0952 9.8445 0.256775 0.557228 1.26059
194 1 4.93202 14.7809 11.5277 0.150778 0.524518 -0.689108
195 1 6.61615 13.1529 9.90606 -0.0189147 -1.691 -0.0563934
196 1 8.32664 14.7288 11.4777 -2.78252 1.59606 -0.405759
197 1 9.77851 13.1599 9.91018 -2.42969 -0.482981 0.00655315
198 1 11.5371 14.7923 11.5653 -0.263168 0.513103 2.33358
199 1 13.255 13.224 9.90283 -1.55176 -0.990065 0.817383
200 1 15.0368 14.7751 11.5468 -0.912938 -1.41718 -2.24802
201 1 0.0787611 16.4948 13.1564 -2.46506 -1.69998 0.11935
202 1 1.6681 1.59981 14.9402 0.333327 -0.67164 0.507074
203 1 3.18421 16.4472 13.1535 0.124146 0.406555 0.606568
204 1 4.82674 1.54945 14.7933 -0.986861 1.04426 -0.154628
205 1 6.48067 16.466 13.0384 -1.1718 -1.76645 2.357
206 1 8.25619 1.75538 14.7122 -1.13177 0.114454 0.608856
207 1 9.76527 0.109833 13.0491 -1.1279 -1.09333 -1.2558
208 1 11.5046 1.75418 14.7669 0.173312 0.650363 0.709666
209 1 13.2024 16.45 13.0698 -0.454529 0.522387 1.36037
210 1 14.8067 1.64152 14.6891 0.245902 -0.254449 -1.67841
211 1 0.00774908 3.22818 13.3463 -0.201443 1.06786 0.0849859
212 1 1.6003 4.94406 15.0115 -0.0646447 -0.751639 -0.629952
213 1 3.20584 3.35968 13.2236 -0.433102 -0.279201 0.732993
214 1 4.89598 5.10731 15.0501 0.131436 -0.561007 -0.794314
215 1 6.50127 3.38299 13.1694 -0.472613 1.45105 -1.62901
216 1 8.27064 4.90043 14.8582 -0.01138 -0.0346348 -1.33713
217 1 9.98472 3.34086 13.0715 2.00845 -0.488705 -0.402008
218 1 11.634 4.9736 14.862 -1.66423 0.274159 0.0716109
219 1 13.2802 3.33808 13.1334 1.46163 -0.187135 1.34041
220 1 14.8395 5.07733 14.8341 1.38018 -0.578499 0.468603
221 1 16.5071 6.65896 13.214 1.07295 1.96008 -0.220332
222 1 1.59571 8.29456 14.8351 0.592047 -0.680841 1.03112
223 1 3.21377 6.59843 13.2241 0.481871 0.292308 1.53888
224 1 4.80679 8.19394 15.0277 0.570712 1.67217 1.05487
225 1 6.4746 6.61593 13.3038 -0.263673 -1.17996 -0.155219
226 1 8.2796 8.24599 14.897 0.8284 -1.80334 1.04983
227 1 9.83554 6.59154 13.2093 0.892329 -0.0933366 0.0855776
228 1 11.456 8.36086 14.8453 -0.297534 0.0737333 -0.862467
229 1 13.2094 6.68739 13.2235 0.544268 0.457424 -0.775645
230 1 14.8089 8.48499 14.9426 0.958797 -0.570416 1.01181
231 1 0.00010472 9.96106 13.1822 -1.71054 0.782892 0.782315
232 1 1.70441 11.5331 14.8965 -3.7795 2.00452 1.22147
233 1 3.2936 9.87997 13.1589 -0.751374 -1.16957 0.757722
234 1 4.96797 11.5407 14.9318 1.9267 -1.6548 -0.755554
235 1 6.49754 9.87441 13.3466 -0.831896 1.15351 0.631231
236 1 8.28294 11.535 14.7903 1.19302 -0.279375 0.236328
237 1 9.90356 9.93295 13.205 -0.262717 -0.577362 -0.146686
238 1 11.4927 11.5276 14.7935 -1.75606 -1.17245 -0.795621
239 1 13.1161 9.95834 13.1287 1.66475 -0.0771406 -0.420449
240 1 14.905 11.6572 14.7663 -0.942268 -0.316791 1.05194
241 1 0.09063 13.0324 13.1372 0.469804 2.5158 1.00446
242 1 1.6458 14.7106 14.8619 0.48784 1.90971 -0.660101
243 1 3.30244 13.1714 13.276 0.117528 0.608709 0.324123
244 1 4.97622 14.7363 14.8518 0.332923 0.972868 -0.362216
245 1 6.6419 13.1485 13.1373 -0.770552 0.202995 1.77672
246 1 8.15613 14.9106 14.6652 0.564115 -0.898992 1.56064
247 1 9.89852 13.0497 13.0365 -0.248376 0.530243 2.11819
248 1 11.542 14.7518 14.6666 -1.44928 0.750337 -0.796401
249 1 13.2205 13.1434 13.0561 -0.444062 1.31408 0.863118
250 1 14.9818 14.8384 14.7118 -1.52249 -0.936706 0.267954
