ITEM: TIMESTEP
900
ITEM: NUMBER OF ATOMS
250
ITEM: BOX BOUNDS pp pp pp
0.0000000000000000e+00 1.6520000000000000e+01
0.0000000000000000e+00 1.6520000000000000e+01
0.0000000000000000e+00 1.6520000000000000e+01
ITEM: ATOMS id type x y z vx vy vz
1 1 16.4687 0.0213122 16.413 0.52109 1.04372 1.87376
2 1 1.74612 1.66514 1.48661 -0.521209 -1.04019 1.1155
3 1 3.44492 16.4861 16.4432 -0.74428 1.7931 0.275747
4 1 5.11123 1.7063 1.65121 -0.512015 1.29142 -0.184591
5 1 6.60277 0.0374902 16.5028 -0.274401 1.14777 1.0049
6 1 8.36079 1.67218 1.58025 0.723496 -2.06174 -1.3579
7 1 9.93995 16.5026 16.4582 -1.77518 -0.191429 -1.69295
8 1 11.6063 1.72945 1.46139 0.373414 -1.28703 0.502673
9 1 13.2849 16.5078 16.3479 -0.899178 -0.496217 -0.0502843
10 1 14.8487 1.70965 1.50625 -0.26054 1.80094 0.54953
11 1 0.0494846 3.26975 16.3403 -0.874663 -0.583787 -0.626759
12 1 1.52277 4.94671 1.72644 0.644853 0.561859 0.422213
13 1 3.24006 3.3588 16.4432 1.68293 -0.407178 -0.579614
14 1 4.84148 4.96887 1.6964 3.28727 0.181202 -0.910877
15 1 6.46349 3.24143 0.08092 -0.24341 -0.376743 1.00627
16 1 8.21392 4.99036 1.65915 -1.14926 1.38187 0.229284
17 1 9.83539 3.31469 0.0282211 0.470508 1.20017 0.246937
18 1 11.6024 5.0314 1.77209 -0.215077 0.31374 1.11975
19 1 13.1762 3.32484 16.4399 -0.893961 0.418708 0.134205
20 1 14.7913 5.02924 1.46885 0.408577 1.16524 1.02634
21 1 0.11515 6.65109 0.0358705 3.36468 -3.42892 -0.525118
22 1 1.70755 8.31591 1.74503 1.33108 -1.35907 -0.0129667
23 1 3.31688 6.62347 0.0735211 -0.451367 0.89026 -0.156145
24 1 4.97036 8.2723 1.73046 0.220197 0.397672 0.0808694
25 1 6.57742 6.65664 0.0509034 0.626618 1.6496 1.03842
26 1 8.28753 8.30563 1.65638 0.140218 1.93078 0.598497
27 1 9.83225 6.53603 0.0903536 -0.35789 0.73683 -0.978002
28 1 11.6843 8.32366 1.60998 0.80812 0.348762 0.365816
29 1 13.2263 6.72305 16.4703 -0.0174392 -2.04793 0.871377
30 1 14.9382 8.33323 1.60419 -0.399297 1.09782 0.289143
31 1 0.121819 9.9595 0.0675463 0.136181 -0.221723 -4.30667
32 1 1.66471 11.6383 1.75142 -0.698144 0.661751 0.0324148
33 1 3.38346 10.0625 0.0970741 -0.49683 0.910257 -0.484331
34 1 5.05358 11.6484 1.63544 -0.168508 -0.386205 -0.273357
35 1 6.73947 9.90231 0.136794 -2.31778 2.24494 -0.122699
36 1 8.32495 11.6498 1.75363 -1.37325 0.943712 0.85389
37 1 9.99803 10.0384 0.0363532 1.0368 1.85026 2.08551
38 1 11.577 11.6507 1.74095 0.114878 -1.20889 1.6777
39 1 13.2465 9.88706 0.035996 1.23791 -0.860685 -0.182439
40 1 14.9491 11.7581 1.71974 1.17857 -0.675024 -2.38813
41 1 16.5147 13.3163 0.025214 0.130319 -0.122497 -0.569103
42 1 1.61337 14.8917 1.6539 -0.534516 -1.39516 1.40354
43 1 3.28485 13.2101 0.0635403 0.376057 -2.45556 0.328645
44 1 4.99129 14.9101 1.66041 0.667496 0.557341 0.730947
45 1 6.50572 13.2418 16.5144 0.875002 -1.45342 -0.186786
46 1 8.3268 14.9546 1.68741 -1.04672 1.29488 0.423298
47 1 9.98553 13.1537 0.026276 0.478623 -1.7853 0.766102
48 1 11.6052 14.9935 1.55238 -0.121347 -0.68786 -1.32743
49 1 13.1089 13.2405 16.4289 -2.06637 -1.26152 0.515108
50 1 14.8541 14.9154 1.56336 2.41351 1.45584 1.37631
51 1 0.0075693 0.0398218 3.17495 -1.52492 -1.28403 2.91358
52 1 1.72965 1.70191 4.81418 0.950431 -1.11032 3.01147
53 1 3.39315 0.0861415 3.19998 0.325271 1.70871 -0.410501
54 1 5.0287 1.66276 4.99577 -0.397826 -0.231591 1.85734
55 1 6.7265 0.124625 3.29322 1.02936 -0.498797 -0.881389
56 1 8.38723 1.67329 4.85938 -1.00574 -2.05321 -0.110206
57 1 10.0193 0.157672 3.21912 -0.566083 -2.9071 -1.99492
58 1 11.5386 1.77693 4.88094 1.24337 0.303682 1.01755
59 1 13.2426 0.220296 3.08356 1.68472 -0.616082 -1.66964
60 1 14.9449 1.74466 4.87284 -0.00107762 -0.89847 -0.604012
61 1 0.0943469 3.34021 3.21777 0.707007 1.37242 0.191939
62 1 1.56277 5.0402 4.94768 0.09094 1.56738 -0.677166
63 1 3.32285 3.30404 3.25568 1.32346 2.25928 -2.07064
64 1 4.93698 4.96265 5.06187 -1.36508 -0.133658 -0.551191
65 1 6.64599 3.43737 3.2473 -1.63688 1.00029 0.287446
66 1 8.28698 5.08048 5.07012 0.316872 -0.344569 -0.776603
67 1 9.84963 3.39296 3.31234 0.427453 -0.311651 -0.284274
68 1 11.5893 4.97421 5.11104 1.66198 0.0734957 -2.64604
69 1 13.2745 3.31053 3.11155 1.05778 -0.00416189 0.928436
70 1 14.7698 4.9434 4.95622 2.16123 0.0346464 0.324531
71 1 16.4442 6.68066 3.41257 2.00621 0.529611 0.5354
72 1 1.74535 8.13509 5.09527 1.89388 -1.39107 3.80333
73 1 3.43718 6.69052 3.39903 1.94544 -0.931145 -1.08796
74 1 5.0254 8.26589 5.05398 -0.207482 -0.0247727 1.91883
75 1 6.6839 6.53114 3.32805 0.200971 2.12638 1.02549
76 1 8.35378 8.21354 4.98515 -1.5455 0.439521 -1.38065
77 1 9.9544 6.70185 3.2477 0.190043 1.04678 0.330726
78 1 11.7953 8.27754 4.8714 1.25804 0.298872 0.649435
79 1 13.3438 6.62863 3.11874 -1.52483 0.109248 -0.624975
80 1 14.9186 8.2022 5.03233 -0.473977 0.00322772 1.51864
81 1 0.0169081 9.92501 3.41255 -2.16056 -1.75066 0.448569
82 1 1.73523 11.5383 4.85437 0.355891 1.27207 -0.446537
83 1 3.4514 9.97311 3.2669 -1.67296 -0.124376 -1.14389
84 1 4.93802 11.5002 5.0818 0.189501 0.670895 1.15958
85 1 6.65983 9.86205 3.35916 -0.376539 -0.144541 1.17948
86 1 8.38839 11.5358 5.01603 0.603859 0.253409 -0.737054
87 1 9.98298 9.72674 3.38969 -0.744544 -1.07191 0.394914
88 1 11.6042 11.5599 4.97964 -0.517165 -2.73846 0.908021
89 1 13.1937 9.92792 3.22927 0.809078 0.265432 -0.856474
90 1 14.8919 11.6235 4.94745 -1.36533 0.418411 -1.13318
91 1 16.4433 13.2624 3.35873 -0.142909 0.74134 2.41816
92 1 1.74813 14.846 4.96274 -0.370709 -0.182837 -0.366854
93 1 3.36863 13.133 3.30706 0.024763 -0.0117798 -0.208464
94 1 4.98855 14.9327 4.93674 2.0067 0.604167 0.158792
95 1 6.54207 13.3185 3.30829 -3.33275 2.45652 1.33303
96 1 8.34742 14.8369 4.90903 0.795908 -1.18455 -0.608685
97 1 9.89334 13.3153 3.29014 -0.432436 -0.194498 0.777733
98 1 11.5982 14.982 4.77597 -0.891466 -0.228157 1.71791
99 1 13.1785 13.3074 3.26104 -0.783206 0.47849 -0.160041
100 1 14.7572 15.0086 4.81918 -0.144231 -1.67876 -0.829582
101 1 16.4381 16.5145 6.55425 0.465268 -0.0837158 0.679752
102 1 1.67499 1.55726 8.23091 -2.18512 -1.53646 2.31619
103 1 3.35533 0.022056 6.54574 -0.550549 -0.645658 -0.885628
104 1 5.05624 1.53691 8.15546 0.185664 -1.64928 -0.813852
105 1 6.69919 16.5042 6.48432 -0.795327 0.0653241 1.09753
106 1 8.29634 1.70769 8.18605 -1.20392 0.501467 -0.646836
107 1 9.86133 0.0213949 6.5266 -0.527746 0.329695 0.662815
108 1 11.6458 1.5525 8.11675 0.0195862 1.86167 -1.02971
109 1 13.3378 0.0394675 6.49257 -0.185347 0.573387 -0.119731
110 1 14.8415 1.59399 8.17171 -1.36159 -0.303291 -2.31694
111 1 0.0201186 3.28685 6.55654 -0.437609 0.800334 0.686554
112 1 1.53909 4.87825 8.2648 0.520645 1.22063 0.519214
113 1 3.33473 3.21675 6.52511 -0.0562655 -0.610024 1.49164
114 1 4.90625 4.99033 8.30017 -0.573739 1.04009 1.27596
115 1 6.64406 3.33711 6.6235 -0.125287 2.09246 -0.361667
116 1 8.21031 5.08829 8.32892 -1.32486 -1.00602 0.829941
117 1 9.85999 3.3964 6.63854 1.73659 -0.0689675 0.698748
118 1 11.6178 4.92895 8.20735 -0.125601 -1.40403 1.36329
119 1 13.2523 3.19743 6.57139 0.00993035 -0.7026 1.2312
120 1 14.9112 5.02051 8.23916 0.0734246 -0.753336 0.0109686
121 1 0.0367665 6.53686 6.63902 1.75198 1.47736 -0.871008
122 1 1.6773 8.27147 8.28403 0.44581 -1.80839 1.69315
123 1 3.3423 6.53951 6.67085 -0.0713804 2.83258 1.10269
124 1 4.89031 8.15675 8.41885 0.185 1.74682 0.791368
125 1 6.53849 6.66112 6.77762 0.225046 0.449268 1.62714
126 1 8.13566 8.21039 8.44834 -1.14381 -1.72627 0.0397257
127 1 9.90469 6.71398 6.65433 -1.27616 0.100846 -1.38667
128 1 11.7778 8.22317 8.26017 -2.08509 1.67463 -0.855784
129 1 13.3453 6.65723 6.58446 1.05174 -0.568058 0.496917
130 1 14.8695 7.97279 8.28865 0.902899 0.176745 1.00843
131 1 0.0664842 9.86657 6.57058 0.45808 -1.91561 2.2294
132 1 1.5378 11.5565 8.29009 -0.445006 0.963799 -0.00639231
133 1 3.26781 9.91961 6.6185 -0.808641 0.919363 0.738876
134 1 4.95543 11.4677 8.30826 -0.390785 0.736306 -1.47769
135 1 6.67548 9.85982 6.68014 2.39819 -0.21996 0.0282489
136 1 8.2358 11.5464 8.44545 -1.46096 -0.225963 -0.269789
137 1 9.96728 9.81586 6.60903 0.519652 2.02542 2.07552
138 1 11.5831 11.5508 8.22821 -0.318371 -0.182486 -1.28241
139 1 13.3893 9.87265 6.57213 -0.23214 -0.48655 0.167309
140 1 14.8749 11.5402 8.18372 0.321728 0.565205 1.63721
141 1 0.0402548 13.2192 6.42892 -0.176828 -0.120327 0.0606963
142 1 1.48392 14.8192 8.25151 -0.719724 0.700536 -0.230399
143 1 3.21579 13.2202 6.54498 0.984621 -1.59782 1.29229
144 1 4.91241 14.8047 8.2851 0.833395 -1.58188 -1.75571
145 1 6.60015 13.2992 6.50633 0.756589 -0.348303 1.17784
146 1 8.18066 14.9173 8.26089 0.363616 -1.59178 -2.43891
147 1 9.96388 13.2722 6.60351 0.722026 -0.360209 -1.86581
148 1 11.538 14.8719 8.023 -1.11754 0.259417 -2.89044
149 1 13.3368 13.1605 6.54599 -0.97536 -0.524071 -1.89494
150 1 14.8445 14.7896 8.24952 -0.194903 -0.190891 1.27102
151 1 16.491 0.00742983 9.81239 -0.697079 -0.822635 -0.207416
152 1 1.50435 1.59722 11.5068 -0.274502 -0.18367 1.57401
153 1 3.22225 16.4314 9.87524 -0.332317 0.67801 0.205408
154 1 4.89552 1.58452 11.5032 0.163331 -1.86034 0.109975
155 1 6.62504 0.0124003 9.98375 -0.123077 -0.29756 -1.50998
156 1 8.20436 1.66516 11.5552 -1.16156 1.29562 -2.04248
157 1 9.98551 0.00996223 9.77148 -0.532496 0.666003 -2.44338
158 1 11.5348 1.6725 11.484 -1.93044 -2.38566 0.3798
159 1 13.1523 16.3063 9.75164 0.692366 1.31106 -0.352412
160 1 14.7738 1.60659 11.4652 0.508819 -0.304145 -1.66726
161 1 16.4223 3.2342 9.91495 0.244845 -1.26184 0.356647
162 1 1.55594 4.93335 11.5507 -0.466598 0.932393 0.277081
163 1 3.2746 3.31254 9.87425 0.467321 0.302534 0.868354
164 1 4.88222 4.91656 11.6079 0.817282 0.326566 -0.975215
165 1 6.53117 3.35597 9.83726 0.654316 -0.0801505 -2.99587
166 1 8.1655 4.85901 11.5746 0.30778 -1.24034 -0.152612
167 1 9.82757 3.32854 9.95784 0.0563245 -0.762869 -0.601919
168 1 11.5409 4.80039 11.5271 -1.03359 -1.03338 2.28468
169 1 13.0927 3.21874 9.72512 0.706817 -0.0440395 -1.07222
170 1 14.7942 4.93152 11.566 -2.02827 0.513361 -2.10651
171 1 16.4416 6.56008 10.0672 0.131454 -0.227598 -0.774677
172 1 1.67518 8.11941 11.7043 -0.120776 0.0864052 -0.189407
173 1 3.24029 6.49519 9.99531 -0.749086 1.66697 0.334258
174 1 4.91358 8.1885 11.7234 -2.01474 -0.36704 0.554846
175 1 6.44122 6.62361 10.0817 -1.70103 -0.140587 0.481391
176 1 8.13835 8.25199 11.8049 1.60236 -1.561 -0.566455
177 1 9.79096 6.61769 10.058 -0.76961 0.211971 -1.82209
178 1 11.6369 8.2447 11.6189 -1.1837 -0.459734 1.36175
179 1 13.0898 6.64694 10.0824 1.37357 -1.70854 -1.21337
180 1 14.8807 8.23307 11.7102 -2.18169 0.42958 -0.508955
181 1 16.4939 9.84433 10.002 -1.36575 -1.22945 1.37469
182 1 1.59936 11.5917 11.5622 -0.124292 -1.49649 -2.09922
183 1 3.32733 9.86567 10.0433 1.11883 -1.97931 -1.27426
184 1 4.93435 11.5001 11.6368 3.08938 -2.32967 -1.38768
185 1 6.67772 9.90853 9.98002 0.425064 0.755507 -0.26835
186 1 8.25088 11.4499 11.6443 1.03921 0.471078 0.718987
187 1 9.93715 9.89174 10.0159 1.24842 1.19361 0.649112
188 1 11.5107 11.532 11.4998 0.126638 -0.335104 1.68603
189 1 13.2806 9.90847 9.88957 1.12616 0.593149 0.645531
190 1 14.8565 11.5296 11.6299 -0.899414 0.50551 -1.24791
191 1 16.4048 13.1854 9.88128 0.539622 2.12265 1.26109
192 1 1.51229 14.8501 11.4726 1.06581 1.13892 -0.725941
193 1 3.26271 13.0852 9.7835 -0.559988 1.54327 -0.706577
194 1 4.84408 14.8525 11.5253 -1.30196 -1.42371 1.14789
195 1 6.59804 13.2164 9.94637 -1.36477 -1.70719 1.2836
196 1 8.19882 14.9228 11.5929 0.40137 -2.54998 0.101927
197 1 9.81519 13.1909 9.93939 2.8722 0.367628 2.1056
198 1 11.4735 14.8308 11.4516 0.972094 1.65543 0.0230939
199 1 13.0887 13.1805 9.95001 1.52108 -0.121516 0.100378
200 1 14.8559 14.7617 11.4879 -0.827958 0.128196 1.29576
201 1 16.4387 16.498 13.0801 -0.242973 1.17631 -2.55519
202 1 1.727 1.5471 14.8108 -1.78914 -0.0129469 0.969235
203 1 3.28302 16.5164 13.0702 -0.647644 -0.261029 0.2538
204 1 4.90252 1.57341 14.8305 0.0472272 -0.219326 -1.35781
205 1 6.65757 0.0255928 13.2319 0.480671 -0.962317 0.583505
206 1 8.32045 1.81075 14.871 0.351903 -0.820188 -0.530876
207 1 9.97251 0.141654 13.2699 -1.19933 0.0106319 -1.49509
208 1 11.6054 1.74707 14.8995 0.372953 0.753496 -1.77932
209 1 13.1786 16.4846 13.1279 -1.56439 -0.147208 -1.75994
210 1 14.8764 1.5747 14.719 -0.992085 0.915993 1.77136
211 1 16.4675 3.27619 13.1992 0.279226 -1.63077 0.168106
212 1 1.58588 4.89554 14.8426 0.542114 0.0251068 -1.54162
213 1 3.1788 3.30111 13.2557 1.75466 1.45025 -1.66786
214 1 4.86251 4.90378 14.8855 -0.0187382 -1.08446 0.142187
215 1 6.47709 3.26376 13.1963 1.62876 -1.58423 -0.405706
216 1 8.15573 4.97444 14.8952 2.076 1.28328 -0.185729
217 1 9.91798 3.37179 13.1769 0.852252 -0.475688 1.06567
218 1 11.5837 4.9732 14.9454 -0.502723 -0.143987 -2.12898
219 1 13.1333 3.27217 13.1301 -2.1706 1.64995 0.349947
220 1 14.9123 4.95155 14.969 -1.58604 -0.619204 -1.07866
221 1 16.4972 6.4878 13.3254 -0.654592 -1.97193 0.803555
222 1 1.7494 8.29832 15.1086 1.78962 -0.637092 -1.34192
223 1 3.32185 6.56866 13.2944 -0.38956 2.3756 -1.22734
224 1 4.97954 8.26382 14.9688 -0.571669 0.0827686 1.02521
225 1 6.45839 6.48178 13.4309 -0.795666 2.1244 0.625977
226 1 8.27433 8.21077 15.006 -1.33354 0.72839 1.24453
227 1 9.8125 6.47597 13.3117 -0.0571815 -0.963278 1.91608
228 1 11.4467 8.19414 14.935 1.27005 2.014 0.822771
229 1 13.2387 6.52427 13.2563 -1.64474 -2.30825 -1.27505
230 1 14.9221 8.39458 14.9186 -0.521854 -0.0786576 -1.90282
231 1 0.055481 9.82144 13.2443 0.725381 0.208695 -0.486933
232 1 1.6392 11.6195 14.9133 1.21603 -0.417934 -2.13553
233 1 3.34974 9.84389 13.2708 -0.723089 -2.28228 -0.470961
234 1 4.93948 11.5735 14.9311 -1.50549 0.766422 0.71534
235 1 6.57328 9.96099 13.3854 1.08442 -0.985019 -0.168379
236 1 8.28842 11.5753 15.0026 -1.79398 1.29052 0.707478
237 1 9.95519 9.98836 13.3228 -0.985189 1.03113 -0.489478
238 1 11.7075 11.5013 14.8525 0.649702 2.88502 1.55219
239 1 13.2162 9.86834 13.2524 2.12802 -0.437498 -0.820366
240 1 14.8769 11.5368 14.8894 -0.938801 -0.0704483 -0.648229
241 1 16.5037 13.1678 13.3306 -0.436892 1.52959 0.242807
242 1 1.69245 14.8974 14.8744 0.0765028 0.554054 0.636186
243 1 3.26446 13.2649 13.1083 1.14158 0.707307 -1.11571
244 1 4.94876 14.8365 14.8312 0.298234 -0.283435 0.184636
245 1 6.5741 13.163 13.3311 -0.279352 -0.212138 -1.16573
246 1 8.26076 14.89 14.8919 1.16948 -2.11757 0.0412892
247 1 9.81394 13.1254 13.1956 -0.830393 2.85447 0.190156
248 1 11.5039 14.8705 14.7961 0.780891 0.489691 -1.18432
249 1 13.1164 13.1535 13.0413 2.67864 0.594636 0.843818
250 1 14.7882 14.7759 14.7954 0.280041 -0.117604 0.314723
