ITEM: TIMESTEP
250
ITEM: NUMBER OF ATOMS
250
ITEM: BOX BOUNDS pp pp pp
0.0000000000000000e+00 1.6520000000000000e+01
0.0000000000000000e+00 1.6520000000000000e+01
0.0000000000000000e+00 1.6520000000000000e+01
ITEM: ATOMS id type x y z vx vy vz
1 1 16.5181 0.0165456 0.140025 -0.82107 -1.07888 0.08728
2 1 1.74106 1.76878 1.65388 1.36573 -0.5878 1.45521
3 1 3.29893 16.49 16.4553 -0.144718 -1.01493 -0.298423
4 1 5.03331 1.64709 1.58774 -0.609486 -2.02786 0.649381
5 1 6.63083 16.4362 16.4615 -1.44658 -0.888944 -0.437123
6 1 8.28236 1.52773 1.59065 0.755612 -0.993411 -2.19073
7 1 9.95944 16.5077 16.3906 0.579622 -0.441991 -1.03286
8 1 11.6151 1.52503 1.60082 0.114762 0.30705 -0.241901
9 1 13.2496 16.4795 16.4892 -0.142108 -1.24195 -3.23488
10 1 14.7207 1.66647 1.78716 -1.08777 -0.791091 -0.194262
11 1 16.4585 3.34049 0.0567046 -1.68868 -0.781732 0.474285
12 1 1.73697 4.88204 1.64408 -1.00083 -0.0336426 -0.378424
13 1 3.34563 3.27165 16.4131 0.704274 0.589065 -1.31503
14 1 5.05765 4.8757 1.64862 1.82778 0.370881 0.393222
15 1 6.65912 3.25198 16.5163 -0.919279 0.806522 -0.432155
16 1 8.3144 5.0142 1.73638 0.839945 0.542379 0.622671
17 1 9.94752 3.37265 16.4518 0.925028 -0.373339 -0.951951
18 1 11.4722 5.01336 1.62785 0.39196 1.08505 0.518768
19 1 13.1535 3.29568 16.4476 1.06259 0.0343741 -1.54854
20 1 14.7557 4.87676 1.6608 1.6639 0.37659 -1.23976
21 1 0.047622 6.65722 0.0806227 1.78316 1.02702 0.33753
22 1 1.63908 8.24415 1.59499 0.364361 0.382182 2.46047
23 1 3.353 6.62916 16.472 -0.0925829 1.71318 -0.0955289
24 1 4.90556 8.23981 1.72449 0.339611 2.13707 0.63747
25 1 6.62479 6.7047 16.5057 -0.254212 -0.308891 0.703485
26 1 8.3601 8.36418 1.79176 2.49105 0.281432 1.80941
27 1 9.89686 6.72526 0.0569751 -0.362027 0.422627 -0.200174
28 1 11.5389 8.32898 1.72939 -0.642121 1.73057 0.916423
29 1 13.2764 6.70775 16.4578 0.566029 2.19557 -0.716637
30 1 14.8102 8.25315 1.64804 -1.49024 1.29228 1.3349
31 1 0.0376427 10.0021 16.4591 1.08402 2.01817 -0.684508
32 1 1.5906 11.5184 1.79271 1.36576 -0.549918 1.25708
33 1 3.33836 9.89866 0.146763 -0.718203 0.0668715 2.03575
34 1 4.97941 11.5506 1.71314 1.27143 0.296025 1.75516
35 1 6.55823 9.88128 0.0380658 0.162177 0.777791 0.157338
36 1 8.19931 11.506 1.60624 -0.366512 1.00974 -1.17599
37 1 9.91691 9.92324 16.4827 -1.67302 -1.20745 0.712045
38 1 11.5029 11.6435 1.601 -0.601532 2.70737 0.602121
39 1 13.2496 9.89777 16.4589 -0.721802 1.02233 -2.22506
40 1 14.8197 11.5699 1.53988 -0.100125 0.0724314 -0.707532
41 1 16.4659 13.2305 16.5102 -1.00453 0.153759 1.42049
42 1 1.62516 14.847 1.70739 2.18259 0.568039 -0.939958
43 1 3.29617 13.0968 0.0657102 0.288006 -0.287311 1.19131
44 1 4.91786 14.7385 1.60954 1.8374 0.306318 1.25061
45 1 6.6329 13.2482 16.4107 3.21939 -1.86524 0.168235
46 1 8.2762 14.9356 1.61547 1.96185 0.248593 -0.423338
47 1 9.78613 13.282 16.5143 -2.57753 0.403309 0.576927
48 1 11.4985 14.8907 1.61418 -1.16467 -1.80793 -0.39843
49 1 13.1827 13.251 0.0110038 1.23045 0.386841 -0.813505
50 1 14.7628 14.8906 1.65754 -2.15014 0.21477 -1.04839
51 1 16.5013 0.0308937 3.3298 0.442248 -0.0261738 -1.98632
52 1 1.65097 1.7225 4.99689 -1.91523 -1.89186 -0.136407
53 1 3.35595 0.0582689 3.23276 0.429253 0.484517 -1.25939
54 1 4.97657 1.70203 4.95176 1.92274 -0.192644 0.320533
55 1 6.67642 16.5011 3.24126 -0.256497 0.844995 -1.26228
56 1 8.33154 1.70561 4.97565 -0.290413 1.91999 0.621568
57 1 9.88424 16.4908 3.36212 -0.0407216 1.3388 -0.044991
58 1 11.614 1.67124 5.03946 0.659013 0.367794 2.84475
59 1 13.0815 16.4905 3.33494 -1.56149 1.24607 1.45496
60 1 14.9185 1.55796 4.92865 0.888981 -1.31631 0.136028
61 1 0.154847 3.29049 3.33064 1.18037 0.506349 0.0974429
62 1 1.65976 4.97619 5.00735 -0.156028 0.583268 0.588231
63 1 3.31076 3.30387 3.41754 0.0430264 0.139208 1.46039
64 1 4.95452 4.87233 4.96472 1.40465 -0.928773 1.92925
65 1 6.66124 3.20722 3.31876 2.87895 -0.209707 0.471919
66 1 8.26212 4.96764 4.95688 -0.761127 0.338426 0.579107
67 1 9.96053 3.29626 3.24686 1.12626 -0.403417 0.0192979
68 1 11.6788 4.99237 4.99761 0.411082 -0.532003 0.557442
69 1 13.311 3.30425 3.28554 0.444577 -0.655616 0.890068
70 1 14.9 4.8912 5.01938 0.598907 0.10825 1.02114
71 1 0.00991611 6.61507 3.27444 0.219872 -0.348176 -0.3044
72 1 1.53547 8.26859 4.86269 -0.512729 0.361401 -0.501584
73 1 3.41041 6.44753 3.33919 1.75245 -2.08455 0.153966
74 1 4.97407 8.28334 4.82572 0.656239 0.215005 0.275932
75 1 6.69926 6.53903 3.22317 -0.870578 -0.690303 -0.964654
76 1 8.21654 8.1893 4.95004 -0.0256636 -2.16461 0.615026
77 1 9.889 6.65389 3.38492 0.855701 0.0250146 1.81232
78 1 11.577 8.24769 4.99102 1.42435 -0.481197 0.656094
79 1 13.2873 6.56006 3.40509 -1.41775 -0.792781 0.00946025
80 1 14.8401 8.25437 4.93894 -0.51 0.801678 -0.941604
81 1 16.4895 9.9415 3.20829 -0.051186 1.5497 -0.346402
82 1 1.57998 11.5347 5.02029 -0.843056 -0.363038 2.06828
83 1 3.30288 9.88171 3.43965 1.01758 0.80268 0.751735
84 1 4.9029 11.628 4.97813 0.652806 0.969074 0.116178
85 1 6.67477 9.97046 3.35001 0.752954 1.8958 1.39943
86 1 8.25068 11.574 4.97552 0.341657 -1.24608 1.06007
87 1 9.89636 9.93428 3.38942 -1.17556 -0.481094 0.316789
88 1 11.4778 11.4916 5.00536 0.480474 -1.41529 1.59029
89 1 13.2132 9.9449 3.33001 -1.96028 -0.502003 1.08436
90 1 14.8147 11.6006 4.97372 1.65588 2.27025 1.3271
91 1 16.506 13.1949 3.34759 2.36986 0.0403289 1.05141
92 1 1.68336 14.8884 4.93614 0.154025 2.6577 0.576951
93 1 3.24707 13.2538 3.38216 -0.529862 -0.0190085 0.535291
94 1 5.01469 14.861 4.78929 1.02049 -0.582188 -0.174027
95 1 6.58818 13.2112 3.2971 0.579831 0.635591 1.69105
96 1 8.27187 14.875 5.0101 1.02721 -0.446278 0.014191
97 1 9.79904 13.242 3.36006 -1.43661 2.11493 1.04518
98 1 11.4251 14.9497 4.94216 0.391317 1.24885 0.76285
99 1 13.0938 13.2031 3.37489 -0.521133 -2.86323 1.66589
100 1 14.6433 14.851 4.95722 -2.32839 0.529367 -1.18801
101 1 0.0548517 0.00185326 6.68196 0.198015 -1.31957 -0.539485
102 1 1.65212 1.55943 8.30045 -0.673246 -1.58578 -0.239022
103 1 3.42202 16.509 6.50297 1.87472 0.164748 -1.25873
104 1 4.8949 1.62892 8.22098 -1.19247 -0.781237 1.43133
105 1 6.60466 0.0195991 6.52687 -1.27487 1.39312 -0.661985
106 1 8.24497 1.54876 8.20292 -1.13931 -2.32966 -1.20046
107 1 9.95268 0.0184883 6.70419 -0.529783 -0.602105 0.450057
108 1 11.744 1.65329 8.28345 1.64093 0.183064 -0.0636392
109 1 13.1968 16.4546 6.65315 -0.948616 -1.14303 -0.615858
110 1 14.8934 1.51042 8.26427 -0.26784 -2.19323 -0.628184
111 1 16.4962 3.2293 6.6615 -1.07029 1.01816 1.23466
112 1 1.61496 5.03432 8.24034 1.39789 1.86024 0.290634
113 1 3.3385 3.28734 6.72726 -0.786183 0.563915 2.65989
114 1 4.83787 5.04157 8.33364 -1.3958 -0.137784 0.972356
115 1 6.47447 3.32219 6.63418 -0.667763 -0.868013 0.518748
116 1 8.20905 4.96843 8.18761 0.0366187 1.30568 -0.653942
117 1 10.0605 3.337 6.63738 1.03481 -2.05357 1.99312
118 1 11.6117 4.90948 8.28096 0.97293 0.658821 1.18184
119 1 13.4326 3.22789 6.62886 1.62023 0.835886 1.05516
120 1 14.9499 4.9811 8.26869 1.79129 -0.30495 0.352837
121 1 0.00977061 6.65362 6.59029 0.615523 0.515081 -1.11805
122 1 1.68759 8.37075 8.15445 -1.76654 0.720889 -0.120828
123 1 3.22499 6.66754 6.53444 -0.0093002 1.5122 -1.80966
124 1 5.03223 8.36394 8.23306 0.492503 2.00507 1.47265
125 1 6.50188 6.5442 6.65804 -1.14324 0.211944 1.15737
126 1 8.21799 8.35861 8.30427 -0.198978 0.575626 1.55562
127 1 9.92987 6.59447 6.67006 0.359352 0.268086 0.221736
128 1 11.6005 8.28521 8.36855 0.242632 0.517688 1.27914
129 1 13.2541 6.6862 6.7099 0.822974 0.387621 0.932839
130 1 14.8773 8.39053 8.21431 0.541665 2.75542 -0.474085
131 1 0.0327624 9.98231 6.60312 0.401312 -0.3866 -0.76007
132 1 1.7408 11.5888 8.20815 -1.27915 0.21481 -2.29224
133 1 3.39726 9.95842 6.5375 0.785335 -0.442463 -0.360719
134 1 4.99572 11.5737 8.19057 -1.56552 0.0193838 -1.14153
135 1 6.66553 9.89582 6.52836 -0.706086 -2.32237 -1.53115
136 1 8.267 11.5359 8.35261 -0.679213 0.663315 -0.127256
137 1 9.82616 9.86653 6.65382 -1.31868 0.13611 1.74029
138 1 11.6369 11.5445 8.20974 -1.46791 0.314315 1.80814
139 1 13.0805 9.9066 6.65751 -2.74634 0.816328 -0.900912
140 1 14.9456 11.5824 8.19228 1.95482 0.475277 -0.494838
141 1 16.4759 13.2388 6.59063 0.238698 -1.86221 -1.58177
142 1 1.69749 14.9191 8.19264 1.11927 -0.887674 -0.995432
143 1 3.4374 13.3813 6.48581 3.2911 -0.00373376 -0.0768894
144 1 4.95137 14.85 8.30346 0.52687 -1.93767 0.29584
145 1 6.60801 13.2356 6.61473 1.19723 1.16651 0.174645
146 1 8.20346 14.8727 8.36463 0.238809 -0.477244 0.755624
147 1 9.78237 13.215 6.58877 -0.0525198 1.39221 0.405397
148 1 11.595 14.7975 8.25686 -1.19341 -1.46485 0.700941
149 1 13.1326 13.2051 6.6226 -1.56566 1.6037 0.753901
150 1 14.8567 14.935 8.35665 0.412319 -0.23396 -0.24435
151 1 0.13142 16.5184 10.0197 -0.380696 -1.85918 0.115361
152 1 1.74049 1.64142 11.6599 -0.19219 1.49446 -1.25122
153 1 3.25212 16.4645 10.0291 -0.0178727 -0.104204 0.854987
154 1 4.87797 1.74611 11.5029 -3.3671 0.944964 -1.22938
155 1 6.538 16.4909 10.0628 -1.63116 0.927419 2.7103
156 1 8.22019 1.70716 11.4883 -0.906669 0.506923 -0.465916
157 1 9.89302 0.0157067 9.93697 -0.722631 -1.82946 0.209494
158 1 11.5776 1.6686 11.4208 0.124849 0.575324 -1.48482
159 1 13.2678 0.00792131 10.0413 0.428286 -1.81569 1.8276
160 1 14.9181 1.76269 11.5499 -0.660996 2.23876 -0.865108
161 1 16.3708 3.26464 9.91925 -0.447904 0.994105 -0.284327
162 1 1.55355 5.06452 11.4746 -0.500778 -0.199894 -0.598431
163 1 3.17624 3.26982 9.93177 -1.81527 -3.45762 -0.171717
164 1 4.85696 5.01932 11.5163 -0.867253 1.39904 -1.31896
165 1 6.41634 3.39235 9.82223 -1.08233 -0.392732 0.275169
166 1 8.12747 4.93967 11.5777 -2.00089 -0.382554 -1.55509
167 1 9.74825 3.3492 9.79915 -0.456277 -0.321878 -2.23763
168 1 11.535 4.87202 11.4743 2.30439 0.224332 -0.0921297
169 1 13.252 3.32308 9.76575 1.26749 -0.643623 -1.95037
170 1 14.8405 4.93511 11.5361 1.1939 -0.832976 -0.561246
171 1 16.4419 6.67661 9.88523 0.434544 0.113688 -0.324894
172 1 1.60754 8.28162 11.4573 -0.0370566 -0.226255 -0.568445
173 1 3.09958 6.67658 9.86285 -2.7294 -0.376321 -0.817731
174 1 4.85222 8.25722 11.5673 -0.21553 -1.42705 -0.0154928
175 1 6.66396 6.57563 10.0148 1.03878 -0.0926739 1.82219
176 1 8.33447 8.16521 11.6403 0.973447 -0.309093 0.386571
177 1 9.84839 6.49063 10.0262 -1.28883 0.973131 0.419341
178 1 11.5969 8.17751 11.5828 -0.75845 -0.733973 -0.0908006
179 1 13.1956 6.60256 9.93587 0.786114 0.436581 -0.631002
180 1 14.8618 8.26366 11.5931 -1.38602 0.696438 -0.965993
181 1 0.0436382 9.93306 9.93263 -0.122903 2.04101 -0.114951
182 1 1.73839 11.5088 11.4702 1.64905 0.238793 -0.588269
183 1 3.37738 9.92224 9.81901 1.76903 -0.545139 -0.287257
184 1 4.98982 11.5945 11.4951 1.27437 0.244293 0.2113
185 1 6.62007 9.92453 9.94737 -2.14432 -1.04972 0.0844393
186 1 8.32657 11.5805 11.5464 1.17034 -1.74852 -0.422727
187 1 9.86227 9.88957 10.0159 -1.64416 -2.13591 1.50813
188 1 11.5552 11.5975 11.4874 -1.72138 0.060853 -2.74432
189 1 13.2449 9.94874 9.83974 1.02367 0.526169 1.59641
190 1 14.9047 11.4972 11.4663 -0.622387 -0.0784996 -2.31478
191 1 0.0606734 13.2476 9.82925 0.532832 -0.630198 -0.839822
192 1 1.65459 14.7647 11.5337 0.14635 -2.06297 -1.00901
193 1 3.26807 13.2255 9.82281 0.164868 -1.17034 -1.16261
194 1 4.91192 14.8172 11.6367 -0.443615 -1.39795 0.347547
195 1 6.63187 13.2498 9.96625 -0.347357 1.02629 -0.264855
196 1 8.23668 14.9826 11.629 1.60701 -1.4824 -0.286609
197 1 9.911 13.2188 9.92524 1.91312 -0.477818 0.1771
198 1 11.6271 14.8688 11.4592 -0.338714 -0.162687 -2.35946
199 1 13.3019 13.2104 9.82251 0.877543 1.45712 -1.38197
200 1 14.9158 14.8397 11.6694 0.528933 0.602901 1.7656
201 1 0.0688096 16.4926 13.2826 2.09375 0.716692 -0.746324
202 1 1.6356 1.68571 14.8713 0.290182 -0.109879 -0.589938
203 1 3.31972 16.4383 13.2756 -0.911103 -0.780808 -1.22525
204 1 5.00218 1.62495 14.8714 0.470445 -0.503611 -0.403874
205 1 6.66295 0.100452 13.1917 0.745335 1.41261 -2.97328
206 1 8.26319 1.57457 14.8531 -0.497417 0.146985 -1.4428
207 1 10.0873 16.4724 13.1383 0.329591 0.912797 0.761167
208 1 11.6834 1.57388 14.7193 0.110013 -0.923004 -1.96067
209 1 13.241 0.00759899 13.1546 -1.14858 -1.00963 -1.76749
210 1 14.902 1.59684 14.9682 -1.51993 -0.487047 0.951185
211 1 16.4408 3.40335 13.2021 0.0952859 -0.683477 -0.0685416
212 1 1.602 5.02147 14.8326 -0.103296 0.766943 1.22006
213 1 3.26507 3.35546 13.2687 0.198868 0.308933 0.384743
214 1 4.95441 4.91103 14.7659 -0.827852 0.212239 1.49035
215 1 6.51279 3.28761 13.2798 -1.03499 -0.791401 1.9006
216 1 8.22025 5.03641 14.9444 0.175447 -0.0388038 0.159406
217 1 9.7873 3.40196 13.2036 -1.00371 1.49748 -0.316004
218 1 11.5292 5.01914 14.8509 1.94832 0.169132 -0.402911
219 1 13.1344 3.30406 13.1779 -0.832129 0.518436 -1.63803
220 1 14.8522 4.935 14.9228 -0.908348 1.20123 -0.460921
221 1 16.431 6.60626 13.2146 -0.973226 -1.2236 0.340767
222 1 1.67403 8.27422 14.8774 -1.01096 0.911627 -0.647658
223 1 3.1971 6.61283 13.1867 -0.756746 -0.678715 -0.659919
224 1 5.00097 8.30603 14.7962 -1.09929 -0.959641 -0.271368
225 1 6.62773 6.52723 13.2327 -0.0186775 0.607254 1.02974
226 1 8.17573 8.27121 14.9515 -1.14291 1.08529 -0.235091
227 1 9.90762 6.52052 13.2774 -1.39782 -0.0852474 -0.601538
228 1 11.5527 8.23861 14.9481 0.108732 -0.0413675 1.60026
229 1 13.187 6.62815 13.1907 -0.373228 1.04787 0.775207
230 1 14.9209 8.24174 14.7686 -1.96257 1.9162 -0.488391
231 1 0.0588892 9.88405 13.1354 0.611536 -0.421177 -0.707278
232 1 1.78957 11.4642 14.8973 2.92277 -1.90234 -0.0119941
233 1 3.45441 9.8507 13.1967 0.977299 0.266342 0.135435
234 1 4.95676 11.5509 14.9471 -1.88222 1.5619 1.33066
235 1 6.58413 9.85919 13.1519 -0.652625 -1.74073 1.29537
236 1 8.16972 11.5297 14.8459 -1.64528 0.707433 0.483048
237 1 9.89647 9.85512 13.3231 -0.79171 0.00929757 -0.515767
238 1 11.5639 11.724 14.8886 1.17782 1.55205 -0.124552
239 1 13.1952 9.9223 13.2471 -0.900234 -0.419961 0.701452
240 1 14.9192 11.4969 14.8681 0.778448 0.330905 0.018574
241 1 0.098073 13.1096 13.2019 0.421446 -2.03489 -1.30898
242 1 1.65926 14.7605 14.9078 -0.727995 -1.89718 0.325451
243 1 3.38222 13.0981 13.1634 0.590864 -0.545009 -0.41934
244 1 4.95848 14.8476 14.8218 0.0276197 -1.12166 0.0918827
245 1 6.6225 13.2059 13.2015 0.0467477 -0.502128 -1.64019
246 1 8.34215 14.866 14.7656 -0.628542 0.55392 -1.95253
247 1 9.97211 13.239 13.265 0.152957 -1.34127 -1.84851
248 1 11.5732 14.8313 14.786 -0.0886633 -1.28111 -0.90386
249 1 13.2645 13.195 13.1853 -0.3954 -0.593692 -1.00767
250 1 14.9111 14.8151 14.8461 1.21691 0.388448 -1.27691
