ITEM: TIMESTEP
320
ITEM: NUMBER OF ATOMS
250
ITEM: BOX BOUNDS pp pp pp
0.0000000000000000e+00 1.6520000000000000e+01
0.0000000000000000e+00 1.6520000000000000e+01
0.0000000000000000e+00 1.6520000000000000e+01
ITEM: ATOMS id type x y z vx vy vz
1 1 0.0447511 0.0776106 0.0540381 1.15307 1.63304 1.14848
2 1 1.66314 1.65843 1.62819 1.4387 1.88897 0.223173
3 1 3.25578 0.110307 0.0211083 -1.46444 0.889762 -1.36527
4 1 4.95704 1.66728 1.67974 -1.84218 0.25819 0.206722
5 1 6.60646 0.0283704 0.122229 -1.07596 -1.50893 0.816525
6 1 8.24704 1.63725 1.74987 -1.28122 -1.11488 -0.492436
7 1 9.91891 0.21091 0.0778079 0.55353 -0.45475 2.08824
8 1 11.4906 1.65338 1.64681 -0.69887 1.21673 0.111972
9 1 13.3161 0.0961373 16.5104 -0.439332 0.151871 0.725465
10 1 14.9029 1.71876 1.69292 0.398076 0.410772 1.31561
11 1 16.4679 3.36795 16.4978 0.146369 -1.18736 0.702263
12 1 1.58985 5.01624 1.62678 2.83359 0.890686 -2.15959
13 1 3.22981 3.34274 16.4138 0.320338 0.434677 -0.999498
14 1 4.94845 5.01337 1.61657 -0.458365 -1.56509 -0.931555
15 1 6.6302 3.42556 0.0633095 -0.105284 -0.83365 2.37519
16 1 8.12602 4.96258 1.64806 0.0174364 0.386468 -0.886522
17 1 9.86267 3.25893 0.00820261 -0.172019 -0.96582 1.55521
18 1 11.4378 5.03297 1.61441 -0.264557 1.27727 -1.40504
19 1 13.1292 3.32192 16.3867 -1.71803 -0.319053 1.08537
20 1 14.7971 4.96218 1.67074 0.470928 0.512839 -0.126856
21 1 0.0610896 6.47019 0.140883 0.564011 -0.644944 -1.21426
22 1 1.66195 8.24837 1.54208 1.00853 -1.89072 1.87658
23 1 3.37595 6.54504 16.4238 0.951004 0.218998 -1.97992
24 1 4.93699 8.20083 1.63152 0.691913 1.74844 -0.977082
25 1 6.53156 6.529 16.481 -0.308146 1.38784 0.227861
26 1 8.35396 8.30125 1.64359 -1.13935 0.467848 -0.708794
27 1 9.86136 6.60697 16.4916 -1.13298 0.289332 -0.449365
28 1 11.662 8.2258 1.68709 1.89701 1.07449 -0.647979
29 1 13.2763 6.52303 16.4947 0.415816 -1.71095 1.81568
30 1 14.8293 8.14375 1.74602 0.775932 -0.56119 -0.888127
31 1 16.4831 10.0481 16.4758 0.77207 -0.972288 -0.710847
32 1 1.75011 11.606 1.63363 -0.66281 -0.0929265 -0.423476
33 1 3.36206 9.97456 0.0935347 0.721204 -1.4595 -0.219616
34 1 5.04499 11.4837 1.6157 -1.20476 0.0895442 0.253062
35 1 6.64766 9.7718 0.0515811 -1.86043 -0.567562 -1.38168
36 1 8.24592 11.5472 1.51962 -0.155934 -0.451236 -0.670606
37 1 10.0005 9.77984 16.4517 0.732903 0.00798704 -0.203006
38 1 11.6295 11.6195 1.68277 0.880148 -0.146877 -0.30504
39 1 13.2313 9.71743 16.4702 -0.463063 -0.421099 -1.30042
40 1 14.7969 11.5661 1.53957 0.188612 -0.836223 -0.499049
41 1 16.4648 13.3262 16.4211 1.17267 -0.659752 0.791349
42 1 1.7081 14.8782 1.61451 0.293222 -0.286244 -0.152769
43 1 3.26524 13.2356 16.5022 -1.50235 0.980168 1.14828
44 1 5.01198 14.9115 1.55969 -0.368007 -2.42424 -0.0511939
45 1 6.70401 13.1953 0.0145059 -1.60711 -0.765374 0.600612
46 1 8.26291 14.8694 1.69575 -1.68957 -0.162664 1.47108
47 1 9.84913 13.1793 0.206266 -0.963939 -1.51845 -0.481944
48 1 11.5332 14.9492 1.56685 -0.144712 -0.765241 2.17143
49 1 13.0665 13.2461 0.0716445 1.61784 0.350654 0.100656
50 1 14.9333 14.9272 1.57059 -1.18954 0.0515765 3.74325
51 1 0.0625579 16.4614 3.38009 0.899605 -1.90658 -1.00139
52 1 1.63315 1.6293 4.9357 0.3481 -0.407625 2.87106
53 1 3.26461 0.0294427 3.20931 -2.1735 -1.87256 0.507061
54 1 4.94279 1.50545 4.94936 -0.780167 -0.222732 -0.690326
55 1 6.55096 16.423 3.33923 -0.669332 -2.22888 0.485173
56 1 8.3457 1.72687 4.94171 0.87058 -0.898012 0.126178
57 1 9.86973 16.4701 3.32054 -1.75807 0.861888 1.41445
58 1 11.5847 1.70799 4.79975 0.257826 0.6326 -0.413969
59 1 13.3293 16.5001 3.28239 -1.06082 0.0989074 0.707516
60 1 14.8605 1.58444 4.84752 1.91809 -0.55943 0.32139
61 1 0.0121381 3.36314 3.28486 -0.329919 1.61517 1.63126
62 1 1.51165 4.99495 4.90671 0.0955197 0.325867 1.51223
63 1 3.26504 3.33593 3.2145 1.35709 1.55585 0.937871
64 1 4.89583 5.03015 4.85992 0.158227 0.077582 1.33266
65 1 6.52863 3.25748 3.35826 0.894023 -0.528967 -1.03422
66 1 8.24609 4.95738 4.88506 -1.10103 0.559165 -0.320625
67 1 9.91925 3.25509 3.18258 0.293364 -0.213872 -0.658879
68 1 11.5267 4.9768 4.75444 -1.14864 -0.840131 -0.642893
69 1 13.0998 3.28462 3.19863 -1.72268 -0.485018 0.386064
70 1 14.8159 4.94327 4.95115 0.758026 1.06869 -0.442331
71 1 16.5117 6.66603 3.3159 -0.34327 -2.19929 -0.34366
72 1 1.57644 8.33679 5.05915 0.261419 -0.312127 -0.536124
73 1 3.2532 6.64347 3.31207 -0.712558 -0.283369 -2.1407
74 1 4.9901 8.21372 4.98709 -0.346879 -1.44858 -1.02928
75 1 6.5419 6.66184 3.19233 -3.62742 2.89102 -1.59912
76 1 8.22703 8.17631 4.94723 -0.680532 -0.987419 -0.462946
77 1 9.88434 6.64984 3.3273 -0.141162 0.585168 1.13542
78 1 11.6227 8.19517 4.86069 0.628882 -1.24013 0.578554
79 1 13.1662 6.50868 3.30229 -0.154479 -1.94363 -0.758318
80 1 15.0291 8.34508 5.05129 1.36692 -0.339259 0.0192184
81 1 0.0344835 9.91277 3.20811 -1.79857 -0.603555 -1.55814
82 1 1.67349 11.5185 5.01055 -0.126476 -0.460052 2.53783
83 1 3.34331 9.859 3.26945 -2.90195 -0.713359 0.394605
84 1 4.92624 11.5621 4.88591 -0.719382 0.774363 -0.798472
85 1 6.59328 9.9655 3.2607 -1.374 0.894976 -1.44734
86 1 8.27758 11.5912 4.81758 0.0525421 -0.720058 -0.57418
87 1 9.96329 9.99856 3.18481 -0.00248254 2.24337 -0.924171
88 1 11.7072 11.5559 4.78272 -0.0237675 0.253079 -1.78935
89 1 13.3442 9.8251 3.25575 1.36057 -1.27302 -0.941009
90 1 14.9667 11.5924 4.91287 1.17933 -1.0204 0.221618
91 1 0.027273 13.2052 3.30278 0.371329 0.923141 1.075
92 1 1.56143 14.8671 4.96358 -1.277 1.80616 1.41983
93 1 3.32845 13.1431 3.1744 -4.72476 -1.0426 0.295964
94 1 5.01905 14.8833 4.93363 -1.1363 -1.48641 -0.763148
95 1 6.54901 13.2281 3.23646 -1.29483 -1.64451 -0.652371
96 1 8.27311 14.7647 5.01217 -2.07097 -0.359916 -0.0802369
97 1 9.90209 13.2635 3.22731 -0.614897 -0.823811 0.0934001
98 1 11.641 14.9906 4.94795 -0.295344 -1.83306 -0.270458
99 1 13.2796 13.2368 3.23691 1.25345 -3.15734 0.521157
100 1 14.9042 14.909 5.07677 1.58216 -0.0492046 -0.0882985
101 1 0.10255 0.0947788 6.61025 -0.849463 -0.874012 1.47483
102 1 1.71429 1.92047 8.23203 -0.265395 -0.614367 0.2247
103 1 3.30126 16.5075 6.47081 0.979849 1.12727 -0.300354
104 1 5.02399 1.65155 8.18903 1.48481 -1.3151 0.0470128
105 1 6.67988 0.0550488 6.5913 -0.0529271 -2.2164 -0.888101
106 1 8.39724 1.71715 8.20691 -0.657304 -1.20045 -1.93909
107 1 10.0074 0.0513515 6.67507 -0.875559 -0.472851 -0.67403
108 1 11.6211 1.80862 8.30301 -0.428203 -0.515462 -0.143558
109 1 13.2034 0.0680485 6.61576 -0.967253 0.00867603 1.32007
110 1 14.8145 1.68163 8.19867 -0.0709407 -1.94351 0.53208
111 1 16.4418 3.38432 6.5459 0.195854 0.142969 2.64153
112 1 1.66215 4.75047 8.33614 1.01163 -0.202905 0.837991
113 1 3.23765 3.41196 6.6054 -0.856465 1.40582 0.907764
114 1 4.92237 4.99351 8.28828 0.468347 1.74612 1.60352
115 1 6.66447 3.2886 6.48757 0.851981 0.234426 0.874495
116 1 8.31731 4.93634 8.23219 0.391963 1.44407 -3.09795
117 1 10.0654 3.2892 6.47008 0.600868 -0.0233272 -1.92332
118 1 11.5395 4.93491 8.28792 -1.48941 1.74777 -0.183937
119 1 13.1698 3.33583 6.38531 -0.191771 1.58321 -1.80844
120 1 14.8115 4.87762 8.26135 -0.744397 -0.0662742 -0.033767
121 1 16.5037 6.44354 6.63471 -0.129864 -0.778844 0.749715
122 1 1.6973 8.13937 8.25169 -0.208082 -0.631951 1.26106
123 1 3.323 6.57374 6.50999 1.37398 3.15233 -0.141158
124 1 5.05799 8.1502 8.24205 0.825418 -0.785545 0.373644
125 1 6.56389 6.52678 6.59726 -0.679676 1.94656 0.609917
126 1 8.31742 8.25002 8.26457 -0.261451 0.875037 -0.176339
127 1 9.88119 6.58149 6.59161 0.328729 0.78101 -1.33196
128 1 11.5399 8.22777 8.27697 -0.724075 1.20143 0.409778
129 1 13.167 6.55533 6.66222 0.399583 -0.719106 0.85602
130 1 14.9493 8.16582 8.20066 -0.439087 0.828964 0.0432232
131 1 0.11365 9.88252 6.73455 -0.630781 -2.75802 0.475113
132 1 1.63832 11.5749 8.4072 -0.811965 0.253808 -0.0193131
133 1 3.36893 9.92803 6.62893 -0.421903 -1.72589 0.396311
134 1 4.82785 11.5955 8.30659 0.432489 0.732326 -0.481243
135 1 6.64905 9.86434 6.47006 -0.516927 1.25646 -0.0370424
136 1 8.34505 11.6212 8.24442 -1.14682 1.32782 -0.348272
137 1 9.93467 9.98814 6.53936 -0.290463 0.372009 -0.413472
138 1 11.5968 11.5924 8.13036 -1.16204 -1.28515 0.0762293
139 1 13.1802 9.83664 6.49602 0.737523 0.09933 0.339227
140 1 14.967 11.4578 8.28828 -1.33187 -0.816933 -0.473115
141 1 16.447 13.035 6.65685 -0.583785 1.53907 2.11408
142 1 1.55566 14.8896 8.15207 0.145844 1.32331 -0.117005
143 1 3.33425 13.2163 6.59704 -1.37613 -0.333058 0.0466227
144 1 4.90408 14.8156 8.25613 1.22084 1.10316 0.614047
145 1 6.62082 13.1727 6.68516 0.799212 -0.393123 0.359628
146 1 8.28847 14.8185 8.28866 -0.388593 0.00876624 0.0240767
147 1 9.93674 13.2251 6.48618 1.93166 -1.80193 -1.59843
148 1 11.5316 14.7859 8.18146 -0.49443 0.8431 0.461684
149 1 13.2279 13.2959 6.51438 0.514784 -0.513644 0.360566
150 1 14.822 14.9936 8.28069 0.707909 1.4497 -0.887303
151 1 16.4693 0.10858 9.85646 -0.357199 1.43444 1.53534
152 1 1.73904 1.65896 11.6047 -1.94997 0.900341 0.465757
153 1 3.42405 0.0978267 9.82127 0.225904 -0.94854 -1.07181
154 1 5.03785 1.65447 11.456 0.838339 1.37006 1.91838
155 1 6.54213 0.0864274 9.80708 0.805178 0.552006 -0.495646
156 1 8.2344 1.61464 11.616 2.28025 -0.31999 -1.52541
157 1 9.9225 16.4673 9.9353 -0.588713 0.264976 -1.26827
158 1 11.6107 1.64697 11.6235 -2.97297 1.92518 -0.188889
159 1 13.1736 0.0390845 9.94067 -0.527428 -0.0500467 -0.0210642
160 1 14.8902 1.70534 11.5492 -1.9817 1.02192 2.77103
161 1 16.478 3.35423 10.0429 1.75385 0.144433 -0.0118084
162 1 1.6651 4.97937 11.5861 0.338617 -0.782266 0.863963
163 1 3.28857 3.19217 10.0312 1.1747 -0.0868928 -0.558423
164 1 4.88674 5.05028 11.6776 0.985244 0.375694 -1.00931
165 1 6.68144 3.32084 9.9508 2.78453 -0.176019 -1.75632
166 1 8.22029 4.93794 11.6854 -0.420934 -2.58717 -0.205815
167 1 9.85973 3.27151 10.1455 -1.65192 -1.82587 -1.61181
168 1 11.6985 4.90509 11.7453 -1.25675 -0.222641 0.212572
169 1 13.1849 3.32356 9.96492 -0.398019 -0.597339 -0.602792
170 1 14.8558 4.95938 11.6135 -1.3366 -0.392844 -0.173765
171 1 16.4849 6.50703 9.87748 -0.679647 -0.413846 -0.486612
172 1 1.69029 8.25842 11.6425 -0.0195764 -0.406159 0.956302
173 1 3.28262 6.52376 9.86722 0.765966 1.67385 -2.2507
174 1 4.88353 8.21076 11.593 1.35722 -1.56361 -1.10488
175 1 6.59172 6.60702 10.0109 1.22082 1.97514 -1.12484
176 1 8.35125 8.2488 11.5054 1.82833 1.80615 0.403365
177 1 9.91171 6.66852 9.91002 0.759478 -1.0404 -0.741382
178 1 11.631 8.3667 11.5327 0.103406 -0.388862 1.55812
179 1 13.1922 6.54344 9.93022 0.599545 -0.773857 -1.48362
180 1 14.837 8.18563 11.5387 -1.32408 -1.25412 -0.551436
181 1 0.0324979 9.75836 9.96256 1.68309 -0.22031 1.2457
182 1 1.5315 11.5747 11.695 0.460575 0.20151 -0.166566
183 1 3.32098 9.79134 9.97795 0.482697 0.192032 0.690511
184 1 4.90545 11.5423 11.58 2.00716 0.861115 -0.0149832
185 1 6.49998 9.85062 9.95569 1.00193 2.67415 1.16446
186 1 8.26984 11.6344 11.6174 0.831277 0.484996 -0.377982
187 1 9.96748 9.8833 9.94584 1.31909 0.625512 -0.929129
188 1 11.444 11.5734 11.5936 0.859442 -0.795778 0.400633
189 1 13.2728 9.8867 9.95725 -0.103205 0.262559 0.536207
190 1 14.7531 11.5584 11.582 -1.00308 1.56367 1.48558
191 1 16.3849 13.2483 9.93552 -1.93353 1.25358 1.36544
192 1 1.55627 14.9216 11.5175 -0.617468 0.39742 0.850533
193 1 3.1248 13.2557 9.95797 -1.17487 1.03905 0.541381
194 1 4.89912 14.9072 11.6072 0.062707 0.387005 0.693628
195 1 6.51754 13.2519 9.92377 0.651489 1.04301 0.371373
196 1 8.17527 14.8302 11.6732 2.9934 -1.09017 0.130892
197 1 9.97124 13.2696 9.94322 0.17274 0.455569 -0.506586
198 1 11.5306 14.8347 11.461 1.21755 -0.243145 1.26745
199 1 13.1662 13.1631 9.8807 2.47856 0.357208 -1.00174
200 1 14.6904 14.8931 11.5474 0.494815 1.59815 2.68782
201 1 16.467 16.4837 13.1469 1.75516 2.53374 -0.0709034
202 1 1.50841 1.65934 14.7506 -0.410311 0.782442 0.488484
203 1 3.43102 0.0444194 13.2075 0.877449 0.557289 -0.120373
204 1 5.04808 1.69661 14.9743 0.326725 -2.12567 1.13266
205 1 6.67599 0.111336 13.3068 0.263945 0.165539 -0.796618
206 1 8.38181 1.65695 14.9113 1.25678 -0.195605 2.65745
207 1 9.95978 16.501 13.3456 0.658349 1.18407 0.930002
208 1 11.6155 1.61906 14.862 -0.438367 0.607812 0.621765
209 1 13.3327 16.4595 13.2256 0.747232 -0.00288538 -0.475784
210 1 14.9935 1.6792 14.9187 0.501668 2.0892 -0.247738
211 1 0.0223465 3.25653 13.0675 0.507028 -1.69 1.43232
212 1 1.62758 5.00152 14.864 0.00993072 -1.26186 -0.133521
213 1 3.27462 3.23532 13.1678 2.06579 0.628913 -1.59465
214 1 4.88778 4.8309 14.8209 1.33376 1.14646 -0.975015
215 1 6.67733 3.19392 13.2926 0.894206 0.200633 0.129133
216 1 8.29079 4.99057 14.8946 0.888733 0.120217 1.3246
217 1 9.84392 3.26065 13.3343 -0.421436 -0.571643 0.531551
218 1 11.6387 4.93608 14.8229 -0.588121 -0.863733 1.24697
219 1 13.2562 3.25044 13.2353 -0.189515 -2.28599 0.425593
220 1 14.8815 4.93355 14.8307 -0.841647 -0.378364 -0.968774
221 1 0.0404118 6.58594 13.3375 0.38916 -1.51716 -0.89391
222 1 1.62232 8.28725 15.0598 -0.375974 -0.267488 -1.48486
223 1 3.30996 6.67003 13.3276 -0.273576 0.753559 -1.92
224 1 5.04684 8.22241 14.865 -1.24478 0.0336262 -1.47322
225 1 6.58799 6.63896 13.2251 0.614625 1.12866 -0.568787
226 1 8.22559 8.24875 14.8412 0.650525 1.00808 -1.71356
227 1 9.98899 6.71803 13.2328 0.146005 -0.218654 -0.0811037
228 1 11.6517 8.21076 14.8672 -0.328175 -0.127707 -0.909351
229 1 13.276 6.60759 13.2336 -0.445489 -0.97585 -0.143483
230 1 14.9283 8.1392 14.8965 1.57429 -0.481797 0.121189
231 1 0.0492675 9.89102 13.3644 0.13032 -1.30432 -0.852303
232 1 1.72646 11.6212 14.8636 1.31818 1.43257 -0.795069
233 1 3.25995 9.97215 13.3881 1.86144 0.163065 -2.34708
234 1 4.93587 11.5889 14.9167 -0.0551034 0.539951 -0.816759
235 1 6.69452 9.83221 13.124 -0.190679 1.5421 -1.0502
236 1 8.22759 11.5215 14.9454 0.81619 -0.205771 -1.59041
237 1 9.84969 9.8622 13.2384 2.74471 2.54674 1.42796
238 1 11.5798 11.5355 14.9262 -0.901763 0.876694 1.58429
239 1 13.1952 9.91261 13.2814 -2.05339 0.123518 -0.731565
240 1 14.7551 11.5672 14.9569 0.309073 1.42513 -2.04907
241 1 16.3349 13.303 13.2205 -2.24224 -1.92343 -0.722833
242 1 1.70551 14.9189 14.868 -1.2279 -0.616171 -0.383109
243 1 3.24322 13.241 13.2038 -1.3015 2.04574 0.0299584
244 1 4.92733 14.9744 14.9595 0.172007 -0.702381 0.916886
245 1 6.53604 13.1996 13.2501 0.830057 0.807541 -1.06037
246 1 8.27357 14.9202 15.0016 -1.02767 2.16258 -0.141752
247 1 9.81306 13.2577 13.2668 1.64663 -0.422953 0.694807
248 1 11.5914 14.9281 15.0503 1.09355 -1.88839 2.54057
249 1 13.0894 13.1255 13.2471 -1.1794 -0.852652 -0.298861
250 1 14.7124 14.8965 14.9492 1.85921 1.67387 -0.203369
