ITEM: TIMESTEP
880
ITEM: NUMBER OF ATOMS
250
ITEM: BOX BOUNDS pp pp pp
0.0000000000000000e+00 1.6520000000000000e+01
0.0000000000000000e+00 1.6520000000000000e+01
0.0000000000000000e+00 1.6520000000000000e+01
ITEM: ATOMS id type x y z vx vy vz
1 1 0.00913164 16.4448 16.3318 -1.08739 0.446794 -0.735226
2 1 1.69157 1.65175 1.52929 1.13077 1.20918 -1.56665
3 1 3.32976 16.4368 16.4962 1.82196 -1.4128 -0.360931
4 1 4.93171 1.57534 1.66015 2.49278 0.325322 0.610238
5 1 6.66441 16.494 16.4757 -0.113102 -0.578245 -1.07483
6 1 8.2013 1.78022 1.70584 1.24199 0.620077 -0.196899
7 1 9.97647 0.073279 0.054005 1.27417 -1.13041 -0.311516
8 1 11.5551 1.79379 1.58481 0.0885269 0.370859 -2.34676
9 1 13.2329 0.0455985 16.4309 1.55785 -0.276865 -1.29083
10 1 14.9427 1.5913 1.47248 -0.10132 0.443247 -0.437666
11 1 0.0243018 3.26779 0.0167257 0.928545 0.12412 -1.41655
12 1 1.62693 5.00257 1.62401 -1.46707 -0.703453 0.564069
13 1 3.24213 3.31042 0.0478729 -1.57686 1.16048 -0.980382
14 1 4.76637 4.9236 1.76815 -2.05564 0.679524 -0.302652
15 1 6.57955 3.35775 16.4552 -0.521915 -0.136891 -0.451271
16 1 8.29474 4.90294 1.63651 0.231838 -0.0377602 -0.00211085
17 1 9.91444 3.3481 16.4615 -1.30943 -0.749005 1.10928
18 1 11.5814 4.97221 1.54901 -0.27307 0.572542 1.93937
19 1 13.3346 3.30442 16.4188 -1.02438 0.33003 0.200006
20 1 14.9005 4.88987 1.55722 -1.26956 0.577017 -2.49133
21 1 16.3945 6.77814 0.0849837 -0.369038 1.76251 -0.237391
22 1 1.65639 8.32669 1.75541 -0.581378 1.23831 0.425844
23 1 3.27159 6.60817 0.0859674 1.23981 -1.0437 0.178413
24 1 5.01221 8.22617 1.68051 -0.661723 0.456086 0.507681
25 1 6.53562 6.46996 0.0333672 -0.25132 0.838603 -0.508875
26 1 8.30696 8.1053 1.70985 -0.0528222 1.06502 -1.00303
27 1 9.94516 6.5547 0.0380211 -0.731282 -0.891458 1.94413
28 1 11.5032 8.24036 1.65152 1.28036 0.743985 -1.16195
29 1 13.2345 6.72373 16.4698 0.0838943 1.92324 -1.51079
30 1 14.8644 8.32184 1.71708 2.57382 -0.861879 -2.30581
31 1 16.4972 10.05 0.299556 1.92919 -0.851235 1.06654
32 1 1.75763 11.6157 1.69341 -1.44863 -0.684684 0.649431
33 1 3.38408 9.88065 0.0940283 0.302918 1.64654 0.393226
34 1 5.04367 11.5768 1.70752 0.246232 1.21555 -0.267294
35 1 6.72231 9.83289 0.0312305 2.15851 -0.494111 1.68467
36 1 8.39337 11.5006 1.62084 -0.011355 1.27568 1.87894
37 1 9.89752 9.7748 16.4913 0.546802 2.08649 -0.711847
38 1 11.5808 11.6467 1.54256 0.195194 0.983475 1.37054
39 1 13.1825 10.046 0.0402135 0.209398 -0.615109 0.0859549
40 1 14.7611 11.5681 1.74432 1.12686 2.52711 1.54812
41 1 16.5023 13.2301 0.0218514 0.146359 1.08412 0.262593
42 1 1.71282 14.9698 1.54892 -0.295377 0.735011 0.366901
43 1 3.31042 13.3571 16.5008 -1.18804 0.843979 0.740646
44 1 4.98985 14.8545 1.66015 -1.02664 0.563836 -0.638599
45 1 6.66622 13.3225 0.0199267 -2.86265 0.740106 0.0893954
46 1 8.32343 14.8714 1.6141 0.897688 -0.333359 0.0369687
47 1 9.88728 13.3591 16.4608 0.864524 -0.692673 0.513487
48 1 11.5919 14.9425 1.67393 0.395521 1.23091 -0.493033
49 1 13.2966 13.2523 16.4531 -0.0334899 1.03497 -0.553747
50 1 14.7424 14.883 1.56212 -1.13085 -1.03624 -1.47003
51 1 0.081218 0.0987788 3.06143 0.965502 1.00235 -1.06314
52 1 1.57156 1.61628 4.79798 1.07698 1.93376 -2.58572
53 1 3.31075 16.4391 3.28395 0.651253 0.482838 -0.775524
54 1 5.03018 1.68683 4.81137 0.835511 0.362569 0.100532
55 1 6.63147 0.00278183 3.31316 0.236274 2.48912 0.645526
56 1 8.2884 1.82266 4.99096 1.94664 0.634786 -1.47951
57 1 9.93471 0.175198 3.30053 2.14632 2.41113 0.343587
58 1 11.5761 1.75314 4.91447 -1.3923 0.000433578 -1.88056
59 1 13.1701 0.111452 3.3226 -0.823599 2.01604 -1.41439
60 1 14.8621 1.70528 4.8583 1.69208 1.65629 0.186339
61 1 16.4038 3.24533 3.19608 1.69795 -0.323736 0.401511
62 1 1.63983 4.84265 4.94231 -0.347836 1.04215 0.874673
63 1 3.28289 3.24251 3.3554 -0.340165 -0.897979 0.63753
64 1 5.06542 4.93625 4.95324 0.0234636 0.654209 1.93899
65 1 6.66195 3.28564 3.33805 1.52971 0.753319 -0.921347
66 1 8.24943 5.03442 5.03141 -0.00389961 1.20515 1.28897
67 1 9.9643 3.47022 3.30035 -1.74594 -0.179313 0.208847
68 1 11.4853 5.00256 5.0172 0.0462978 -0.0887108 3.65408
69 1 13.1701 3.35735 3.23543 0.649502 -0.493965 -2.277
70 1 14.7794 4.91648 4.87706 -2.42816 0.238936 0.384586
71 1 16.4617 6.51699 3.22839 -1.8176 1.88542 1.59361
72 1 1.55084 8.33605 4.78721 1.04231 -0.990163 0.27759
73 1 3.17155 6.6095 3.39009 1.7995 2.15167 1.21716
74 1 5.02463 8.23279 4.9012 0.355346 0.829303 0.499386
75 1 6.58149 6.52376 3.29015 0.93647 -1.56144 -0.0780641
76 1 8.30583 8.22194 5.04861 1.78217 -0.598348 0.737572
77 1 9.95886 6.53481 3.34658 0.0380612 1.18963 -1.48361
78 1 11.542 8.21336 4.94384 2.56677 -0.0881623 -1.07178
79 1 13.2828 6.62586 3.3385 2.81182 -0.0333577 -1.78859
80 1 14.9199 8.30521 4.84665 0.692924 -1.05497 0.824588
81 1 0.0932941 10.0264 3.27209 1.21821 -0.50117 1.54857
82 1 1.69837 11.5388 5.01181 -0.292522 -1.77805 -1.46616
83 1 3.43417 9.90419 3.40069 1.80762 0.817621 -0.406027
84 1 5.05213 11.5668 4.93706 -1.35598 -1.63588 1.08987
85 1 6.74005 9.9201 3.29612 -0.791703 -0.180058 0.137966
86 1 8.26203 11.5466 5.04542 0.817739 -0.303922 0.364919
87 1 9.99001 10.0352 3.28125 0.491187 -2.84125 0.854788
88 1 11.612 11.7391 4.9271 0.487482 0.162552 -0.379838
89 1 13.2563 9.97685 3.35039 -0.51126 -0.41212 -1.11692
90 1 14.9322 11.5537 4.94693 0.840455 -0.302802 0.911753
91 1 0.0809321 13.3273 3.18082 -1.7422 -1.08171 0.53588
92 1 1.62516 14.9809 4.84817 1.9867 -0.881875 1.35348
93 1 3.34978 13.2811 3.31513 0.498975 -1.26971 0.242904
94 1 4.89041 14.8385 4.92407 -1.27296 0.694998 -0.312104
95 1 6.87451 13.0983 3.27082 -1.31004 0.50017 -0.567647
96 1 8.2503 14.9497 4.94227 0.400579 -0.260016 0.0187603
97 1 10.0046 13.2539 3.28923 -0.788584 0.874545 -0.532377
98 1 11.6204 14.9394 4.87011 0.875734 1.16836 -3.22437
99 1 13.2618 13.2654 3.30944 -0.667774 -0.116615 -0.772826
100 1 14.949 14.9841 4.85478 -2.4075 1.89558 0.0503104
101 1 0.0462016 0.0275295 6.48106 -1.91701 -0.620295 -0.259361
102 1 1.73212 1.70826 8.06266 1.59886 -0.272132 -0.141624
103 1 3.3402 0.00984302 6.60165 0.401151 0.569019 0.301868
104 1 4.96299 1.72263 8.30515 1.04075 -1.01307 -0.979673
105 1 6.65673 0.028324 6.55841 1.69714 -0.768074 -2.30393
106 1 8.32819 1.61017 8.33445 0.691131 0.83122 -1.57387
107 1 9.99533 16.51 6.53819 -1.05827 0.243193 -1.09041
108 1 11.525 1.55802 8.25062 1.15163 -2.02809 -1.50574
109 1 13.1828 0.00699767 6.5468 1.88907 -0.311068 -1.1808
110 1 14.9263 1.66103 8.33007 0.524964 -0.45199 0.392549
111 1 16.5151 3.22732 6.53687 1.30799 -0.187574 -0.324054
112 1 1.62768 4.86253 8.23461 -1.39876 -1.30872 0.348171
113 1 3.31411 3.31023 6.51314 -0.223734 -0.52583 -0.67062
114 1 4.98223 4.8291 8.22869 -0.894532 0.714532 -0.16036
115 1 6.64782 3.21873 6.64782 0.0967949 -0.241302 -0.338384
116 1 8.31547 5.02917 8.29952 -0.0492085 1.79288 -0.458104
117 1 9.85576 3.33654 6.64202 -1.80755 0.951724 -1.08604
118 1 11.5705 5.04129 8.2451 0.372322 0.595128 -2.41323
119 1 13.1994 3.34301 6.546 0.919301 -0.928844 -1.32362
120 1 14.7793 4.91084 8.31415 1.5074 1.51294 -0.524309
121 1 16.4491 6.52757 6.63811 0.271169 -1.14983 1.15401
122 1 1.61452 8.27806 8.22555 0.296444 1.84868 -0.0940336
123 1 3.22982 6.46905 6.59163 1.38661 -1.77317 0.422659
124 1 4.88514 8.18483 8.28729 -0.427088 -1.31752 1.29387
125 1 6.62147 6.60796 6.5722 -1.19195 0.281385 0.811615
126 1 8.33659 8.3316 8.30097 -0.766412 0.368828 2.58575
127 1 10.0198 6.66265 6.77368 0.620851 0.506422 0.404342
128 1 11.6369 8.21067 8.31639 3.4506 -1.5614 -0.214743
129 1 13.1526 6.57836 6.54666 0.549035 0.741004 -0.404349
130 1 14.9038 8.30875 8.29142 -0.881341 -4.31156 -0.0412789
131 1 0.0122528 9.94746 6.51472 0.428808 0.973265 -1.25424
132 1 1.69114 11.4548 8.21458 -2.29906 0.0133103 1.23447
133 1 3.37755 9.81239 6.62789 -0.704482 0.671652 -0.268117
134 1 4.9767 11.5112 8.35348 0.333725 -1.58547 0.597474
135 1 6.50663 9.91057 6.67035 0.199273 0.00475692 0.293845
136 1 8.29082 11.4927 8.18579 1.07224 0.993687 3.30162
137 1 9.98098 9.82938 6.59761 -0.5573 -2.4621 -1.2952
138 1 11.5522 11.51 8.26323 0.842887 0.650804 0.746614
139 1 13.2146 9.9123 6.57545 2.86649 -0.092455 0.0231973
140 1 14.8813 11.4785 8.19187 0.0111197 0.229062 -1.28442
141 1 0.0130435 13.2521 6.56745 0.279005 -0.296393 -1.66962
142 1 1.69072 14.8011 8.20868 -2.09325 -0.555608 0.408111
143 1 3.3162 13.2445 6.59405 -2.17673 1.13977 -1.56415
144 1 4.929 14.9244 8.29201 -1.23606 -0.227442 1.58685
145 1 6.57601 13.2042 6.59729 -0.294007 1.14945 -2.40266
146 1 8.2357 14.9859 8.33674 -1.08688 0.149544 1.58621
147 1 9.85377 13.2165 6.66983 0.590909 0.454365 0.711055
148 1 11.586 14.814 8.33812 0.856475 0.283022 -1.89356
149 1 13.2043 13.2852 6.62602 2.43914 -0.86863 0.632971
150 1 14.9036 14.8663 8.12147 -0.899666 -1.35647 -0.0712219
151 1 16.4976 16.4872 9.86897 -0.0763362 1.43816 -0.632094
152 1 1.64839 1.63692 11.4278 -1.29778 0.0466609 -0.487379
153 1 3.26489 16.4822 9.85142 -0.0446604 -1.39619 -0.22859
154 1 4.87249 1.75015 11.5368 0.33102 -0.0893396 -1.11684
155 1 6.58289 0.0729712 9.94649 0.516486 -0.969634 1.56814
156 1 8.3455 1.64024 11.6683 -0.654266 -1.14105 0.213967
157 1 9.90345 16.5142 10.047 1.19451 -0.56171 -1.67557
158 1 11.6219 1.70355 11.5167 0.541381 1.27906 -1.42738
159 1 13.1902 16.4596 9.93934 -1.36225 -3.3361 -2.35474
160 1 14.8192 1.59593 11.5504 -1.89584 0.543099 0.177544
161 1 16.4491 3.34477 9.85831 -1.09698 -0.279246 -0.0472858
162 1 1.6488 4.84286 11.5811 -0.946493 -0.262275 -0.418705
163 1 3.22834 3.22428 9.8345 0.0627635 0.333261 -0.299803
164 1 4.81122 4.87962 11.6333 0.0901898 -0.391169 0.685853
165 1 6.56348 3.27902 10.0756 -1.70698 0.628801 -0.410903
166 1 8.1825 5.01922 11.6253 -1.23618 -0.444514 -0.249113
167 1 9.87935 3.32907 9.86977 -1.1551 0.454648 0.883091
168 1 11.614 5.03173 11.4992 -0.24263 -1.59335 -2.50561
169 1 13.2116 3.31535 9.90099 -2.13453 -1.42748 -1.52768
170 1 14.9015 4.92821 11.6841 0.121405 -1.33226 0.453036
171 1 0.00898808 6.60578 9.95176 -1.52214 -0.341999 2.54916
172 1 1.69921 8.25193 11.6342 -0.641813 -2.08091 1.31295
173 1 3.27408 6.50528 9.92195 -0.149721 -1.6411 0.815678
174 1 4.98826 8.26291 11.6414 1.46065 -0.347687 0.78623
175 1 6.67671 6.58471 9.95665 -1.15105 0.407101 2.1079
176 1 8.15 8.30834 11.6983 -1.53628 0.407324 2.83884
177 1 9.94435 6.64008 10.0741 -1.13234 -0.472331 2.07099
178 1 11.5495 8.3022 11.6062 1.27675 0.00653514 -0.346536
179 1 13.2727 6.59304 9.9959 -4.11189 1.32915 2.16676
180 1 14.9735 8.25133 11.6314 0.712467 -1.1342 1.81354
181 1 0.0527794 9.9146 9.86859 0.21243 0.0524036 0.413658
182 1 1.61911 11.5645 11.7034 -0.279875 1.89971 0.234555
183 1 3.20481 9.94524 10.0299 0.282907 0.722381 1.31154
184 1 4.8315 11.717 11.6662 -1.78186 -0.685085 0.744907
185 1 6.4744 9.85718 10.0277 2.03244 -0.272297 0.302298
186 1 8.14214 11.5515 11.5866 0.468486 -1.84832 0.723829
187 1 9.84978 9.77374 9.89736 -0.0241611 -0.437766 0.598542
188 1 11.4934 11.4861 11.4476 0.246047 0.825602 -0.665146
189 1 13.2163 9.86947 9.91107 -0.155572 -0.0441468 -0.895558
190 1 14.8901 11.4612 11.6188 0.759819 0.3855 1.36879
191 1 16.457 13.0189 9.81674 -1.43496 -0.185817 -0.270912
192 1 1.55371 14.7511 11.543 -1.75902 0.126428 0.101845
193 1 3.28131 13.1481 9.95186 0.3885 -2.5845 -1.40551
194 1 5.01923 14.895 11.5018 -0.847567 0.354908 -1.07865
195 1 6.62166 13.281 9.88199 0.821013 0.854782 -0.147737
196 1 8.27109 14.9749 11.6249 -1.00116 1.73836 -0.660776
197 1 9.73827 13.2271 9.82612 -1.65628 -0.297173 -0.699572
198 1 11.4122 14.7706 11.5792 -0.704641 -0.226875 -1.63462
199 1 13.1687 13.1589 9.82195 -2.64833 0.509062 0.89166
200 1 14.8382 14.8017 11.4635 0.792764 -0.236477 -0.675747
201 1 0.0173373 16.3692 13.2509 -1.22017 0.26201 0.703357
202 1 1.67574 1.55495 14.793 2.35557 -0.366553 -0.839403
203 1 3.29828 16.4743 13.1329 0.19935 0.734334 -0.944663
204 1 4.94095 1.681 14.9111 -0.033255 -0.987017 -0.336074
205 1 6.53458 0.0828676 13.2016 1.30898 0.032021 0.0373829
206 1 8.18367 1.67883 14.862 1.1069 2.60004 0.365506
207 1 9.97348 0.0214244 13.2572 0.981172 1.67373 1.27297
208 1 11.5406 1.64874 14.8715 0.230568 0.379324 1.93753
209 1 13.2125 16.4503 13.1958 0.990377 0.544694 0.45738
210 1 14.9211 1.62836 14.7243 -0.0499371 -1.2301 -2.07383
211 1 16.4956 3.32646 13.187 -1.38766 0.891096 -0.574348
212 1 1.60506 5.03321 14.9795 -0.232124 -1.50622 -0.685499
213 1 3.17897 3.20039 13.2243 -1.52115 -0.274133 1.32381
214 1 4.86798 4.93714 14.9788 0.0159124 0.135934 -0.904264
215 1 6.46441 3.33223 13.2656 -1.49036 0.297537 -0.424671
216 1 8.15659 4.82833 14.9227 -2.49994 -0.225548 0.825237
217 1 9.87018 3.34996 13.1903 -0.717311 0.431342 -1.052
218 1 11.5753 4.96153 14.9472 0.18896 0.545797 2.56165
219 1 13.3064 3.25134 13.2275 0.0820518 -1.71445 -1.76367
220 1 14.9319 5.01264 14.8868 0.686369 -0.361056 2.05802
221 1 0.0644444 6.73905 13.2731 -0.854789 -1.38522 -0.208429
222 1 1.61596 8.3431 14.9687 0.300768 -0.0188815 2.60867
223 1 3.23954 6.49182 13.353 1.151 -1.53145 0.861707
224 1 4.9656 8.26279 14.9129 0.575576 0.330418 0.229795
225 1 6.60864 6.53118 13.194 -0.723336 -2.46244 2.00993
226 1 8.3058 8.17722 14.8355 1.29715 0.51959 1.16704
227 1 9.90498 6.61027 13.1357 -1.34605 -0.460229 0.668423
228 1 11.4953 8.12643 14.8189 -2.0377 -1.18068 0.500705
229 1 13.2877 6.71455 13.3426 0.32913 -0.474225 0.475201
230 1 14.9254 8.32758 14.9982 0.935153 -0.0513059 1.04738
231 1 0.0309656 9.93229 13.3381 0.10968 -1.75476 -0.866804
232 1 1.63073 11.5721 15.0611 -0.847064 1.1243 -0.410377
233 1 3.27953 10.0204 13.3616 1.42459 -0.0943436 -0.853368
234 1 5.0173 11.573 14.9427 -0.0639494 -0.939295 -1.23561
235 1 6.56634 9.94716 13.302 -0.611059 0.967805 1.61125
236 1 8.33468 11.519 14.8716 1.07111 -0.182718 1.28047
237 1 9.91232 9.76496 13.2157 1.69851 1.51212 2.30307
238 1 11.4939 11.4802 14.8407 2.47039 -2.0881 -1.2492
239 1 13.1706 9.86793 13.2531 -1.4531 0.0429081 0.587131
240 1 14.8996 11.5574 14.9476 0.75044 -0.119654 0.0837797
241 1 16.4856 13.1301 13.1792 1.14776 -0.717243 1.40119
242 1 1.63098 14.823 14.7786 0.748185 0.708529 0.518993
243 1 3.21793 13.2016 13.3197 -0.782053 0.0394488 -2.08371
244 1 4.94603 14.8872 14.775 -0.448499 -0.444701 0.433625
245 1 6.64615 13.2553 13.2501 -0.826826 -1.11136 2.05055
246 1 8.24347 14.9775 14.8347 -1.04171 0.712637 0.991476
247 1 9.91624 13.0799 13.2037 -0.366666 -1.82791 -0.028876
248 1 11.5117 14.8125 14.834 -1.10482 0.0131709 0.191414
249 1 13.0532 13.1571 13.1774 -1.87841 -0.16593 -2.32758
250 1 14.8296 14.8119 14.7279 -0.69969 -0.0622092 0.314196
