ITEM: TIMESTEP
360
ITEM: NUMBER OF ATOMS
250
ITEM: BOX BOUNDS pp pp pp
0.0000000000000000e+00 1.6520000000000000e+01
0.0000000000000000e+00 1.6520000000000000e+01
0.0000000000000000e+00 1.6520000000000000e+01
ITEM: ATOMS id type x y z vx vy vz
1 1 16.4518 0.0103761 0.0355791 -0.254272 -0.278445 0.188914
2 1 1.68263 1.59805 1.7635 -0.124939 -4.04152 -1.48256
3 1 3.34426 16.3203 0.105547 0.848827 -1.59794 2.15172
4 1 4.89246 1.52682 1.71426 2.22093 -0.350395 -0.302568
5 1 6.48207 16.3866 0.0229571 -0.227372 -0.643947 -0.623212
6 1 8.26833 1.56679 1.7019 1.97791 0.000151662 -0.374391
7 1 9.86075 16.2823 0.0979132 -0.760954 2.18217 -1.22797
8 1 11.5123 1.57432 1.81608 -1.57382 -0.446671 1.51685
9 1 13.177 16.3766 0.150033 -0.368433 -1.30588 -0.322385
10 1 14.8574 1.59652 1.70813 -0.834609 -0.722719 -0.405165
11 1 0.10931 3.2978 16.5028 0.28153 -0.500375 -2.39226
12 1 1.66353 4.88788 1.64906 -2.26101 0.434883 1.41057
13 1 3.50411 3.27937 0.0360281 0.395831 0.397831 1.56301
14 1 5.04166 5.04261 1.61239 1.90206 2.43085 0.223731
15 1 6.55417 3.24782 16.4525 0.56605 2.17771 -1.10421
16 1 8.20222 5.00196 1.61835 -1.0229 -1.99725 -1.26812
17 1 9.83712 3.29639 0.0655365 -0.382287 -1.29701 -0.44579
18 1 11.6339 4.88111 1.81888 1.57018 -1.28848 2.77078
19 1 13.3078 3.29687 0.134823 -0.82275 0.441351 -1.31449
20 1 14.9988 4.93675 1.6179 0.0695906 1.92792 0.355065
21 1 0.0812229 6.57154 16.3185 1.39056 -0.592206 0.616481
22 1 1.59619 8.22689 1.52031 0.391348 -0.0526986 -1.91741
23 1 3.26444 6.64588 16.4771 0.150037 -0.318072 0.840403
24 1 4.82419 8.31994 1.55651 -0.394164 -1.09814 0.237501
25 1 6.62849 6.73083 16.4164 -0.629877 -0.0670364 -0.224415
26 1 8.1311 8.34061 1.57201 -0.0969132 1.08996 -0.00992977
27 1 9.9213 6.66969 0.00306396 -0.246336 -1.44158 0.0557066
28 1 11.5158 8.25356 1.58286 -0.129398 0.570156 -0.198497
29 1 13.2002 6.70069 16.4073 0.127014 1.39661 -0.644883
30 1 14.9154 8.23936 1.52836 -2.03552 0.141773 1.94886
31 1 0.063151 9.75484 16.356 -1.10356 0.438086 -1.79047
32 1 1.56295 11.4678 1.65 1.68844 0.492314 1.17093
33 1 3.12545 9.96223 16.2663 -0.199941 1.01614 0.20023
34 1 4.67239 11.5564 1.62219 0.905203 -0.612779 -0.0773818
35 1 6.56493 10.1103 16.389 -0.051194 0.343149 2.56469
36 1 8.17532 11.5783 1.6711 -0.698361 1.71252 0.127484
37 1 9.81121 10.0321 0.00873456 -0.613303 1.38674 -1.35617
38 1 11.5876 11.5146 1.63547 -1.29351 1.22696 1.63466
39 1 13.332 10.0247 0.0145573 -0.393435 -0.419 1.49462
40 1 14.9964 11.4799 1.73648 -0.905238 -0.721291 1.79706
41 1 16.4985 13.1881 0.010746 -0.222666 0.281446 -1.07451
42 1 1.50984 14.8812 1.72246 0.0863463 -0.0794701 1.89429
43 1 3.19589 13.1455 16.3806 -1.26038 -1.20957 -0.959287
44 1 4.72653 14.8211 1.83011 1.00646 1.08645 0.0833465
45 1 6.52144 13.2046 0.0103812 0.606122 0.485301 1.01622
46 1 8.18194 14.6782 1.65506 -0.0287581 -0.849542 -0.28871
47 1 9.91666 13.2596 0.0530019 1.29185 -0.882138 2.24373
48 1 11.6366 14.6703 1.75559 0.498377 -1.54283 -3.39997
49 1 13.4142 13.2144 0.0252826 -2.47343 -0.889906 -0.0245721
50 1 14.9204 14.8565 1.687 1.54477 0.097632 -1.80171
51 1 16.4974 0.193481 3.44186 -1.04325 0.181503 3.6195
52 1 1.67439 1.69033 5.02868 0.136033 -2.00135 0.451184
53 1 3.29837 0.0500593 3.46586 0.575221 2.223 0.766545
54 1 4.99724 1.70543 5.01014 0.417602 -1.93709 1.8456
55 1 6.4331 16.5199 3.29417 0.175026 -0.383665 -0.709646
56 1 8.02875 1.59986 4.9083 -0.310165 0.672994 -0.835498
57 1 9.93357 16.4203 3.25134 0.365938 -1.00081 -1.38938
58 1 11.4614 1.65837 5.07112 -1.64352 2.18203 0.570022
59 1 13.2227 0.0315821 3.44691 1.54699 -0.190175 0.444416
60 1 14.798 1.75676 5.08849 -2.42576 -0.0227128 0.566983
61 1 0.117419 3.27709 3.38505 0.565065 0.105601 -0.0737186
62 1 1.79973 4.97745 5.10793 -0.952655 -0.225589 -0.0972299
63 1 3.30588 3.28853 3.40353 0.466159 -0.96942 -1.9477
64 1 5.06009 5.06744 4.99853 -0.129747 2.04411 -0.861524
65 1 6.55878 3.37712 3.26406 -0.695892 0.200184 -0.208142
66 1 8.25295 5.05772 4.94111 2.41577 0.437934 1.68487
67 1 9.80789 3.33066 3.41421 1.89312 -1.57551 1.38599
68 1 11.5986 5.003 4.99911 1.2562 -0.0131334 0.221091
69 1 13.3379 3.37555 3.4752 -0.106662 -0.153048 2.06942
70 1 14.9256 4.89251 5.06773 1.03316 -1.15313 1.89913
71 1 0.133921 6.53092 3.23396 0.813249 1.12611 0.095411
72 1 1.63772 8.09863 4.94196 -0.52844 0.674594 1.36972
73 1 3.4509 6.57108 3.35582 0.93431 0.475303 1.44828
74 1 4.84851 8.42019 4.9565 -0.229433 -0.145065 2.22831
75 1 6.66666 6.54377 3.31639 1.43593 0.296767 0.313844
76 1 8.19042 8.43545 4.87846 -0.742114 -0.864694 0.9751
77 1 9.92916 6.65146 3.18469 1.11334 -1.16704 0.956206
78 1 11.5848 8.34347 4.87055 -0.414961 -0.438431 -1.29631
79 1 13.2435 6.70538 3.2007 -0.352451 -0.0802895 -1.47964
80 1 14.7974 8.10858 4.85219 0.686966 1.85731 0.188459
81 1 0.0414372 9.74989 3.47838 0.716188 -1.47859 2.12726
82 1 1.46948 11.4893 5.01458 -0.304134 0.374496 -1.18325
83 1 3.23654 10.0045 3.28701 1.85442 -0.316804 -0.695311
84 1 4.78214 11.4593 5.05431 -0.725337 -0.1923 0.347353
85 1 6.46412 9.90597 3.27919 -1.08292 1.09638 -0.318247
86 1 8.19012 11.511 5.00331 -0.0539466 0.563117 0.342032
87 1 9.90563 9.73406 3.30479 -0.6123 0.361862 -0.627155
88 1 11.5692 11.4272 5.08656 -0.401996 -0.039856 1.81546
89 1 13.1942 9.92183 3.29038 -1.00648 1.05101 -0.680775
90 1 14.8697 11.4764 5.04536 -1.62094 1.67691 -0.435443
91 1 16.5001 13.1209 3.38701 -0.782613 -0.241802 0.320359
92 1 1.62904 14.897 5.08108 -1.34977 0.686165 -1.07687
93 1 3.17411 13.1513 3.4352 2.60695 -0.839792 -1.36408
94 1 4.81077 14.7972 5.03971 1.55675 2.73385 1.12728
95 1 6.53851 13.1104 3.35531 -1.00866 1.32239 0.339004
96 1 8.2645 14.7435 4.83079 0.657327 -0.272431 -0.830583
97 1 9.89932 13.0252 3.30028 0.0877378 -1.45636 0.207666
98 1 11.5836 14.7004 4.99129 -0.0917158 0.539375 1.35431
99 1 13.2244 13.1255 3.40645 -2.25265 -0.152448 0.0948181
100 1 14.8155 14.8379 4.96566 -1.03479 0.0310537 1.01025
101 1 16.457 16.5187 6.62281 1.42406 -0.681515 -0.664045
102 1 1.67796 1.53635 8.35535 0.175958 2.3649 0.370836
103 1 3.30036 16.4953 6.76318 -1.23103 -1.01359 -0.0951496
104 1 4.9753 1.61204 8.34121 -0.402314 -2.00072 2.1642
105 1 6.45834 16.4723 6.54718 -0.794765 1.75256 0.462859
106 1 8.17852 1.5293 8.17395 -0.237495 -0.687401 1.17868
107 1 9.84858 16.3496 6.45623 -0.405799 -0.0758668 0.332087
108 1 11.4656 1.52036 8.07553 0.445214 -0.966859 -0.822867
109 1 13.2612 16.4252 6.5108 1.34518 -1.32098 0.193925
110 1 14.8039 1.70251 8.35248 0.713414 -1.29999 -0.374955
111 1 0.114904 3.30349 6.70244 1.16734 1.41438 -0.698625
112 1 1.69558 5.11962 8.26379 -0.372572 -1.24705 0.0449694
113 1 3.4239 3.21583 6.75935 -1.65176 -0.40536 1.96792
114 1 5.10481 5.04848 8.14267 -0.868326 2.20159 -1.08759
115 1 6.61143 3.30842 6.55393 0.615333 -1.0203 -0.861611
116 1 8.25927 5.06007 8.20735 -0.745478 0.0749237 0.967979
117 1 9.6814 3.29106 6.60012 -0.938654 -1.20618 -0.0878556
118 1 11.6167 4.95369 8.0616 1.97021 0.629799 -1.25002
119 1 13.1984 3.21911 6.78624 -0.166985 -1.16024 1.05184
120 1 14.9078 5.00355 8.29431 2.00881 1.95034 0.385953
121 1 0.00935123 6.72666 6.64881 -0.279332 0.356275 -0.956787
122 1 1.58604 8.40303 8.36447 0.0136483 1.41283 -0.606191
123 1 3.36284 6.60233 6.77596 1.35307 -0.282268 0.0175153
124 1 4.9436 8.48715 8.33865 -0.296287 -0.798602 -0.209474
125 1 6.64141 6.80687 6.52124 -0.960606 0.593369 -0.178538
126 1 8.3079 8.36641 8.18548 0.699522 -0.989778 -0.109819
127 1 9.87444 6.71346 6.53081 -0.823617 -0.42148 0.625434
128 1 11.5743 8.2205 8.19584 -0.193591 -1.50702 0.643245
129 1 13.2255 6.63851 6.53005 0.000922858 0.021693 0.72638
130 1 14.8209 8.21138 8.38966 1.27264 -0.658571 -0.82454
131 1 16.4458 9.87827 6.61256 -0.773883 0.669921 -0.642489
132 1 1.58987 11.5464 8.26939 -0.0633702 0.79752 -0.48961
133 1 3.16427 9.95572 6.65086 -1.54876 1.92292 -0.725943
134 1 4.97414 11.6388 8.29921 -0.0606421 0.83672 0.0488139
135 1 6.52468 9.93908 6.62679 -0.0218766 -1.77307 -1.48537
136 1 8.32008 11.5975 8.1618 1.42799 0.19653 -0.37159
137 1 9.92792 9.85917 6.59221 0.242642 0.961905 2.33149
138 1 11.6428 11.6092 8.28677 0.693489 0.932183 0.377852
139 1 13.2606 9.84955 6.63157 -1.14307 -0.768626 0.46203
140 1 14.9321 11.6487 8.34057 2.14856 1.81112 0.507089
141 1 0.0356379 13.2798 6.65231 -0.478313 -2.06869 -2.2707
142 1 1.64462 14.8448 8.46214 -0.751312 -1.06485 -0.421912
143 1 3.24151 13.1804 6.82719 1.38825 0.119557 0.591526
144 1 4.98326 14.8501 8.30013 -0.246452 -1.0651 0.731579
145 1 6.49563 13.2248 6.493 -0.0910691 0.462629 0.436036
146 1 8.31251 14.8222 8.12238 -0.20957 -0.204786 -0.301157
147 1 9.83639 13.1846 6.69892 -1.84784 1.36738 0.927436
148 1 11.6182 14.8327 8.22918 0.183601 -1.45643 -1.46832
149 1 13.2413 13.1471 6.63014 -0.982731 1.6866 -0.231378
150 1 14.7911 14.8088 8.3645 -0.116751 -0.559891 0.89694
151 1 16.4445 16.4496 9.99582 -0.209988 -1.29193 -0.911041
152 1 1.78432 1.79725 11.5598 0.914987 1.84516 1.67099
153 1 3.36774 0.0777809 10.1333 1.93688 1.00642 1.77596
154 1 5.03947 1.59338 11.4886 -1.13916 -0.412833 -2.44531
155 1 6.70718 16.4594 9.98013 -1.50053 0.84828 -1.34044
156 1 8.26509 1.72171 11.594 -1.00757 2.14349 0.035517
157 1 9.97832 16.5004 9.82305 0.402431 -0.247995 0.0298831
158 1 11.5369 1.59504 11.5052 2.13223 -0.195367 -0.612256
159 1 13.1873 0.00444687 9.95546 0.915987 -0.47805 0.381513
160 1 14.8265 1.63462 11.5439 1.24893 0.776243 0.116406
161 1 16.5062 3.2849 9.86082 -0.243835 0.585304 0.662487
162 1 1.71506 4.82986 11.4195 -0.072493 -0.214415 -1.87639
163 1 3.38414 3.36269 9.81591 -2.78357 -0.670379 1.11491
164 1 5.23837 4.91621 11.4153 -0.247986 1.138 0.80401
165 1 6.66012 3.2304 9.85153 -0.771963 -1.18555 1.73226
166 1 8.37104 4.95769 11.3827 0.166303 0.177491 -1.50584
167 1 9.94125 3.33467 9.59594 -0.151353 -1.16084 1.24027
168 1 11.4727 4.86476 11.3799 2.25647 -0.694647 -0.332613
169 1 13.0906 3.28189 9.88568 -0.0965275 0.320826 -0.330143
170 1 14.8142 4.82422 11.5186 0.282684 -0.29604 0.119111
171 1 16.5127 6.60994 10.0057 -0.528502 0.610714 -0.291275
172 1 1.66215 8.26666 11.417 1.08856 1.11947 -2.06048
173 1 3.47137 6.63696 10.0661 0.939001 -0.754633 0.228478
174 1 5.16017 8.43227 11.4586 -0.0755096 1.66362 -0.00373913
175 1 6.7674 6.66914 9.83339 -2.62555 0.591678 0.549951
176 1 8.27595 8.35618 11.5667 -1.20248 -0.885927 -0.423525
177 1 9.84341 6.74484 9.81905 -0.603809 3.04604 -2.60585
178 1 11.4845 8.1695 11.5139 -0.529425 1.73132 -0.913338
179 1 13.1077 6.6069 9.96437 -0.451118 -0.260764 1.15417
180 1 14.8321 8.24899 11.5907 -1.03121 0.0335477 -0.864921
181 1 16.3646 10.0219 9.88257 -1.29955 0.146954 -2.60645
182 1 1.71027 11.6507 11.4903 0.266689 0.565404 -0.237515
183 1 3.3264 10.0815 9.88594 0.253839 -0.387717 -0.559412
184 1 4.97944 11.7508 11.5007 1.33904 -0.98447 -0.234584
185 1 6.71511 9.97331 9.87391 -1.40069 -1.6996 0.240467
186 1 8.40238 11.6549 11.5988 0.32998 0.752581 1.19158
187 1 9.89149 9.92554 9.92366 0.405309 -1.86328 1.70961
188 1 11.7073 11.6736 11.5004 -0.43194 0.531891 1.50767
189 1 13.1272 9.85642 9.95016 -0.384045 -0.235124 1.00809
190 1 14.8819 11.5588 11.4892 0.345656 2.01666 -1.07287
191 1 0.112311 13.193 9.93551 2.25136 -0.893497 -0.695961
192 1 1.69723 14.9096 11.6127 1.18389 -0.708509 -0.297273
193 1 3.47396 13.2433 9.88357 1.47825 -0.35991 -0.586216
194 1 5.04017 14.935 11.5 0.0582714 -0.783841 0.25165
195 1 6.75651 13.2773 9.87906 1.12744 -0.532354 -1.37367
196 1 8.41483 14.9191 11.5079 -1.47539 -0.841262 -0.47103
197 1 10.0021 13.2156 9.84065 1.04745 1.16509 0.850634
198 1 11.5787 14.9334 11.5755 -0.545976 0.448126 -2.45158
199 1 13.1521 13.3226 10.0393 -1.22925 0.300563 3.01441
200 1 14.9003 14.9222 11.6216 -0.621716 -0.808823 -0.108243
201 1 16.4462 0.156072 13.3459 -1.39145 0.21679 -0.00260585
202 1 1.82074 1.70794 14.9267 -1.06947 -0.325287 -0.339263
203 1 3.20247 0.0240618 13.1968 0.0743931 -0.802116 0.291608
204 1 4.95114 1.6281 14.7178 -0.175421 0.182044 -1.26425
205 1 6.6673 16.4515 13.2045 0.205361 0.54948 0.716745
206 1 8.16651 1.55192 14.8792 0.923345 -0.598943 -3.12178
207 1 9.84986 0.00922782 13.2711 -1.35121 0.974115 0.0574241
208 1 11.4066 1.63026 15.1281 -1.28088 0.0904112 1.34802
209 1 13.0491 0.10745 13.3803 1.59502 0.541459 -0.515417
210 1 14.6973 1.57345 14.9945 -0.69848 -0.399586 0.802655
211 1 16.4713 3.34493 13.2383 -0.554024 -0.956853 -1.85733
212 1 1.80289 4.97181 14.7974 0.884191 2.37696 0.293006
213 1 3.42294 3.37562 13.2422 -1.34277 -0.192906 -0.149705
214 1 5.07312 5.08116 14.8825 -1.87188 -0.638709 0.984158
215 1 6.69973 3.30567 13.1644 -0.294139 -1.13416 -1.8825
216 1 8.19302 4.91322 14.8876 0.21179 0.368224 0.0751215
217 1 9.88246 3.26295 13.2657 -0.916382 -0.624768 0.192331
218 1 11.4848 4.94317 14.951 1.06522 -0.21943 0.451711
219 1 13.0082 3.45352 13.2449 -0.229713 1.24655 -0.712383
220 1 14.8274 4.90199 14.9471 -0.321362 0.44151 0.410662
221 1 16.4302 6.53518 13.113 -0.2136 0.138462 0.989099
222 1 1.70743 8.18626 14.5104 -0.389495 -1.07611 -2.07655
223 1 3.49437 6.47105 13.0398 2.36069 -0.363386 -0.0557995
224 1 4.97332 8.2978 14.6899 1.73656 -0.338057 0.34979
225 1 6.74856 6.61765 13.1098 -0.872683 0.228566 0.052881
226 1 8.30301 8.36693 14.826 -1.06712 0.472633 1.18868
227 1 9.81533 6.51223 13.2239 0.11985 1.46944 0.622371
228 1 11.537 8.29857 14.8932 -0.486931 2.19309 -0.138749
229 1 13.1191 6.49479 13.2111 -0.917838 0.180664 -0.693024
230 1 14.7437 8.27357 14.7113 -1.27062 -0.87947 -1.25161
231 1 16.5027 9.96946 13.0793 1.93563 0.573343 -0.15375
232 1 1.54249 11.4458 14.747 -0.29418 -1.82521 -1.33621
233 1 3.26388 9.94633 12.985 -1.90792 -0.0786883 0.924949
234 1 4.82912 11.6389 14.7074 -1.54725 -0.227818 0.10772
235 1 6.65017 10.0239 13.1852 1.69816 -0.90009 -0.633106
236 1 8.26847 11.6861 14.8516 0.70281 1.04979 1.18665
237 1 9.98808 9.92873 13.124 -1.7538 -1.93336 -1.29646
238 1 11.7571 11.5982 14.8555 2.2233 -0.371503 -3.02453
239 1 13.2699 9.88239 13.2087 -0.553553 1.18396 -0.528632
240 1 14.9706 11.4902 14.8625 1.48871 -0.557566 0.958216
241 1 0.214537 13.3006 13.2209 1.60165 1.49696 -0.352057
242 1 1.618 14.9297 14.9289 3.11221 0.0105993 1.81771
243 1 3.33904 13.2304 13.1796 0.367515 -2.1464 -0.684204
244 1 4.90847 14.8603 14.7404 -0.973873 1.12661 -0.778694
245 1 6.73011 13.3136 13.1679 -0.220472 -1.51329 -1.43239
246 1 8.28552 14.7406 14.8818 0.419395 -1.96491 -0.0684264
247 1 10.004 13.2429 13.1668 -0.433656 -0.514653 -2.52312
248 1 11.604 14.9314 14.8747 0.797635 0.494707 -0.867006
249 1 13.4429 13.3785 13.3139 3.82762 -0.172911 -0.650278
250 1 14.9147 14.8966 14.9114 -2.76329 -1.51346 0.030975
