ITEM: TIMESTEP
290
ITEM: NUMBER OF ATOMS
250
ITEM: BOX BOUNDS pp pp pp
0.0000000000000000e+00 1.6520000000000000e+01
0.0000000000000000e+00 1.6520000000000000e+01
0.0000000000000000e+00 1.6520000000000000e+01
ITEM: ATOMS id type x y z vx vy vz
1 1 16.5146 16.4189 16.3382 0.177435 0.33777 0.145662
2 1 1.57317 1.56885 1.56586 -1.20758 0.245994 -0.0402565
3 1 3.37915 16.4901 16.4814 0.495979 0.778148 0.881551
4 1 5.02158 1.73618 1.58007 0.994233 0.593289 0.206245
5 1 6.69588 0.0921226 16.3928 1.27596 1.74818 0.718962
6 1 8.32627 1.77635 1.53821 -1.04643 -0.155258 2.64187
7 1 9.9002 16.4866 16.3698 -1.04554 0.749733 0.48579
8 1 11.6517 1.71899 1.56512 0.815169 -1.79678 0.73726
9 1 13.1281 16.4912 16.413 1.22256 1.61552 2.22052
10 1 14.8707 1.57889 1.4742 -0.151633 1.18792 0.620614
11 1 0.0448088 3.23753 16.478 0.0314525 1.81239 -0.257323
12 1 1.61828 4.95332 1.72589 -1.0551 -1.00502 1.73365
13 1 3.24027 3.25785 0.15457 -0.820596 -0.529748 -0.149132
14 1 4.902 4.90672 1.74481 -0.558009 1.1315 0.421804
15 1 6.60436 3.26621 16.4565 -0.0413571 0.322526 -0.90003
16 1 8.39611 4.87388 1.6127 -1.2203 0.454315 1.13235
17 1 9.98119 3.37334 16.4173 -0.815062 1.51167 -0.01882
18 1 11.6978 4.85411 1.62697 -1.81793 -0.710305 0.158625
19 1 13.3148 3.3192 0.00703071 0.501417 0.0165978 -0.400395
20 1 14.8971 5.02757 1.61755 -1.80768 -1.74862 0.736737
21 1 16.4047 6.77611 16.5022 -0.674973 -0.732221 0.897031
22 1 1.65106 8.36317 1.80432 -1.22657 1.07256 -3.84011
23 1 3.17086 6.63081 0.234156 0.258468 -0.719816 -0.456357
24 1 5.05038 8.23696 1.74121 -1.72478 -1.95522 -0.521845
25 1 6.65815 6.56828 0.0993599 0.165199 -0.62868 -1.88818
26 1 8.20672 8.12903 1.68597 1.14267 0.603318 0.0264642
27 1 9.98444 6.53425 16.5144 0.56358 0.126737 -0.0440118
28 1 11.5024 8.25434 1.63041 -0.755905 -1.69641 0.138515
29 1 13.1686 6.66352 0.0634569 0.00439459 -0.318205 -1.75798
30 1 14.8695 8.41945 1.65933 0.267127 -1.53312 -0.221034
31 1 16.4954 9.90893 0.162426 -0.670559 0.463916 0.0438307
32 1 1.68643 11.6426 1.66446 -0.716638 -0.326576 -0.0854674
33 1 3.33383 9.91238 0.0210849 -0.0837222 0.917368 -0.726402
34 1 5.07939 11.6554 1.68861 0.416619 -0.744701 -1.64073
35 1 6.65377 9.93696 0.0787398 1.09933 -0.66808 0.114468
36 1 8.36662 11.589 1.84829 -0.589775 -1.09209 -0.634747
37 1 9.86358 9.9821 0.0678025 0.926654 -0.889131 -0.812701
38 1 11.4765 11.5235 1.6647 0.908317 -1.19599 -0.139536
39 1 13.1441 10.0671 0.154534 1.45224 -2.04314 0.983777
40 1 14.8429 11.6459 1.78738 0.412353 0.39573 -0.843473
41 1 0.0671586 13.1684 0.0413516 -0.883336 0.629853 -2.40204
42 1 1.68453 14.8642 1.64876 -1.01895 -0.111998 0.433397
43 1 3.44877 13.2618 0.0105053 0.568475 -0.515528 -1.6929
44 1 5.08916 14.95 1.67831 -1.65344 0.682902 -0.446279
45 1 6.57632 13.2921 0.0461758 0.201853 0.46302 -1.06451
46 1 8.31294 14.9709 1.60134 0.147577 0.0094964 -0.298536
47 1 10.0245 13.2199 16.3254 0.774263 1.14684 1.53524
48 1 11.5999 14.9219 1.603 0.795975 2.18169 -0.792433
49 1 13.2021 13.1872 16.4206 -1.77489 -0.0135158 0.978622
50 1 14.8107 14.8333 1.62955 1.74965 0.328547 -2.22383
51 1 16.4579 16.4979 3.18194 -0.296728 1.48224 2.04619
52 1 1.67405 1.63983 4.85799 0.446351 2.19305 -1.72889
53 1 3.4144 16.51 3.34729 0.684801 1.15739 -0.756727
54 1 4.9946 1.73516 4.92424 -0.948944 0.18693 1.14094
55 1 6.77953 0.156888 3.29044 -0.00400029 0.316187 0.457487
56 1 8.28872 1.63381 5.01934 -0.694893 -0.269983 -1.30339
57 1 9.99525 0.121787 3.24009 0.678361 -2.499 -0.0458763
58 1 11.5649 1.6308 5.01933 -0.541588 -1.04863 -1.73258
59 1 13.2101 0.0414098 3.20233 1.57458 -1.34145 -1.27597
60 1 14.8275 1.72164 4.95723 -1.06922 0.958672 -0.704257
61 1 16.3783 3.21732 3.23558 0.686666 -0.919706 -0.983375
62 1 1.68845 4.90394 4.87398 -0.282458 0.187353 -1.37469
63 1 3.3334 3.25671 3.24819 -1.81232 -0.332447 -0.913993
64 1 4.96674 4.8991 4.98615 -1.08423 -0.0707025 -2.26379
65 1 6.68519 3.35876 3.25117 -2.92473 -0.145508 1.3614
66 1 8.36394 4.8787 5.08309 0.241989 0.162137 -1.62948
67 1 9.98189 3.33516 3.40329 -1.86359 0.683614 -0.795234
68 1 11.5831 4.91373 5.11772 0.0509874 1.48085 -1.41843
69 1 13.2641 3.30952 3.31488 1.06525 0.468675 -2.00337
70 1 14.8528 5.00147 4.89207 -1.62837 -1.0807 -0.0627462
71 1 16.514 6.69109 3.33396 0.383042 1.89512 0.666226
72 1 1.77007 8.27613 4.92966 -0.785873 -0.228512 1.10824
73 1 3.28954 6.66198 3.33573 -0.598884 0.928726 1.41326
74 1 4.97752 8.23401 4.98999 -0.508915 1.5178 0.0258926
75 1 6.72034 6.54192 3.47725 2.25801 -1.21729 -0.113608
76 1 8.36448 8.24381 5.04896 0.332315 1.8461 -1.45493
77 1 9.98463 6.4911 3.32193 -1.83023 0.738837 -1.96508
78 1 11.5138 8.2803 5.0608 -0.671655 1.31355 -1.64687
79 1 13.2543 6.72534 3.30708 0.972422 0.709945 1.1133
80 1 14.7716 8.28977 4.92471 0.0768099 -0.83842 0.653075
81 1 0.0155621 10.0019 3.40107 2.23144 -0.327749 -0.445738
82 1 1.81846 11.6648 4.79575 -0.869577 -0.605054 -1.27417
83 1 3.4321 9.98641 3.31662 0.976037 -0.735784 -0.476208
84 1 5.1394 11.57 5.01016 -1.0956 -0.481826 0.420908
85 1 6.73195 9.79832 3.37353 0.70465 -0.678826 -0.0231663
86 1 8.31841 11.5939 5.09562 -0.399003 0.556654 -1.69217
87 1 9.91161 9.88492 3.41489 0.486928 -1.60272 -0.492569
88 1 11.4446 11.6692 5.07151 1.79404 -0.683086 -0.821767
89 1 13.1086 10.0371 3.35693 1.27299 -0.115262 -0.188887
90 1 14.7713 11.5968 4.92816 -0.348607 -0.3118 -0.71664
91 1 0.00136952 13.2921 3.21707 -0.335082 -1.90062 -1.31492
92 1 1.78874 14.8098 4.82119 0.169995 -2.94669 0.0724725
93 1 3.54517 13.3307 3.33108 2.28731 0.612547 -0.726057
94 1 5.03697 14.9527 5.01672 -0.363489 -0.661309 0.0771272
95 1 6.80576 13.3213 3.36102 -1.26803 0.253299 -0.484745
96 1 8.31481 15.0817 4.93903 0.931478 -1.24275 -0.0569752
97 1 10.0046 13.2567 3.37109 0.658184 0.132801 -0.500514
98 1 11.55 14.8651 4.95802 0.666817 1.75621 -1.04556
99 1 13.1644 13.345 3.28428 0.466843 3.44359 -1.00399
100 1 14.9313 14.864 4.83965 -0.811341 0.125563 1.52287
101 1 16.4584 16.4713 6.50031 1.49962 2.90252 0.609516
102 1 1.56905 1.49566 8.173 0.52198 2.08773 0.319582
103 1 3.25894 0.00238367 6.66273 -1.2146 -0.953261 0.17452
104 1 4.85404 1.68264 8.29314 0.221857 2.4049 -2.076
105 1 6.64322 0.0343935 6.71347 1.19516 1.20486 0.0750243
106 1 8.20152 1.69916 8.4725 2.70908 1.22916 0.217393
107 1 9.88525 0.0531145 6.63988 1.62107 0.630408 0.0821749
108 1 11.5281 1.56298 8.32936 0.533189 1.80225 -0.0992767
109 1 13.2748 16.5194 6.62809 0.465802 1.17381 -0.919489
110 1 14.9447 1.67065 8.24595 -0.690636 3.07066 -0.649427
111 1 0.0568834 3.2492 6.5066 -1.13926 -0.406143 -2.26236
112 1 1.56026 5.03393 8.16374 -0.0404102 -0.567606 0.282784
113 1 3.27069 3.20116 6.45736 2.31327 -0.442335 -1.91787
114 1 4.92206 4.85925 8.21888 0.916065 -1.8051 -1.08124
115 1 6.61082 3.313 6.71683 -1.31627 0.637178 -2.0639
116 1 8.2135 4.89186 8.43968 0.485286 -1.39596 1.65778
117 1 9.81767 3.3286 6.77736 0.587977 0.971403 -1.29009
118 1 11.6191 4.966 8.31695 0.0646859 -2.13259 -0.163735
119 1 13.1947 3.30256 6.73108 -0.429056 -1.38025 -0.474723
120 1 14.8933 5.04121 8.22531 -0.693764 -1.55003 0.298282
121 1 16.5125 6.71381 6.53655 0.250926 -1.20024 0.612291
122 1 1.64938 8.28542 8.22608 1.51175 -1.0588 -0.350213
123 1 3.26612 6.51809 6.66281 -1.77353 -2.96536 0.292299
124 1 4.81179 8.17277 8.2292 0.520717 0.951561 -0.524853
125 1 6.67044 6.53805 6.65385 0.708962 -2 -1.37859
126 1 8.19506 8.14627 8.27244 0.659761 1.14563 -0.871389
127 1 9.94944 6.5417 6.706 -0.723657 -0.554472 -0.344765
128 1 11.5874 8.24717 8.24238 1.05133 -0.657217 -1.06356
129 1 13.2503 6.62693 6.55147 -1.27319 0.108818 -0.981248
130 1 14.8269 8.28132 8.27019 0.399199 -2.11373 -0.0293432
131 1 16.4841 9.99726 6.47928 1.59493 1.56689 1.92074
132 1 1.7 11.5255 8.14941 0.432794 -0.680165 2.77697
133 1 3.29086 9.90665 6.577 0.55215 1.29884 0.651516
134 1 5.05952 11.4676 8.26001 -0.813112 -0.283417 1.3079
135 1 6.62999 9.89628 6.76928 1.07506 0.280531 -0.291528
136 1 8.17152 11.4749 8.2828 1.94417 -1.09898 0.344332
137 1 9.92454 9.85206 6.69165 0.692901 0.11982 -2.09444
138 1 11.5137 11.5075 8.31208 2.88758 0.852242 -2.16056
139 1 13.2791 9.98579 6.69475 -0.600292 -0.940757 -0.635448
140 1 14.7694 11.6307 8.21458 0.576569 -0.888718 1.23168
141 1 0.113968 13.3305 6.47807 -0.122777 -2.36322 0.124544
142 1 1.70989 14.7745 8.23056 -1.57919 0.43862 0.706753
143 1 3.32266 13.1686 6.55038 -0.159377 0.520264 -0.387884
144 1 4.97911 14.9274 8.24725 -1.88051 -0.941663 -0.476514
145 1 6.64874 13.2589 6.59479 -1.55321 -1.0598 -0.32408
146 1 8.22395 14.9384 8.2775 0.298597 -0.267789 0.0926628
147 1 9.91325 13.2298 6.7291 -0.964003 0.419019 -0.71969
148 1 11.5792 14.9618 8.32337 1.08229 -1.01832 -1.35121
149 1 13.2237 13.1855 6.63371 0.363893 -0.196514 -0.842647
150 1 14.8989 14.7046 8.16014 -1.65963 0.46453 1.73345
151 1 0.0340724 16.39 9.78754 0.916283 1.22926 -1.18588
152 1 1.49487 1.5636 11.4879 2.93556 -1.68481 -0.0579337
153 1 3.18242 16.4021 9.85545 -0.0993962 1.46412 0.0750384
154 1 4.83882 1.60624 11.6728 1.89824 -0.590859 -1.68782
155 1 6.60206 16.4725 9.91216 1.29409 -1.27009 -0.794349
156 1 8.23196 1.69396 11.5549 -0.70074 -1.2749 1.32107
157 1 9.86765 0.0863069 9.94789 0.358786 0.0760962 0.949036
158 1 11.5959 1.63983 11.5576 2.31163 -2.35884 1.51
159 1 13.2616 16.4642 9.78299 -0.999264 1.30227 -0.00406648
160 1 14.91 1.47997 11.5229 1.13025 -0.278847 -1.72834
161 1 0.0749499 3.28828 9.77274 -2.61371 -0.220457 0.862317
162 1 1.59928 4.93954 11.6437 0.472066 1.45147 -0.418494
163 1 3.23664 3.41808 9.83319 1.53962 0.438291 1.64787
164 1 4.8456 4.84879 11.6104 0.916074 -0.705789 1.35573
165 1 6.47822 3.29016 9.9899 -0.618804 1.5164 0.75268
166 1 8.27145 4.98359 11.564 1.32619 2.70405 1.21283
167 1 10.0143 3.32856 9.94809 0.731221 2.04554 2.99087
168 1 11.5593 5.08802 11.5163 -0.386091 -0.687496 0.700499
169 1 13.3156 3.30876 9.97124 -1.19736 0.709378 0.769596
170 1 14.9277 5.05914 11.552 0.379064 0.0470565 0.649644
171 1 0.0452881 6.70526 9.92537 0.411958 -1.23903 0.838264
172 1 1.6156 8.2862 11.5955 -0.0377173 -0.528453 -0.214228
173 1 3.30977 6.63264 9.96606 -0.461748 -2.07056 1.52798
174 1 4.88299 8.25443 11.6576 -1.09699 1.91328 1.24074
175 1 6.44432 6.50128 9.86267 0.452908 -1.74391 1.26674
176 1 8.03203 8.19788 11.6095 0.306413 -0.947692 -1.19595
177 1 9.9442 6.55517 9.94092 -0.00207958 -0.185444 1.24507
178 1 11.519 8.24875 11.5982 1.04464 0.306594 -1.18064
179 1 13.2872 6.68485 9.91519 -1.6124 -0.449138 1.34953
180 1 14.951 8.35046 11.6048 1.44877 -0.185798 1.19804
181 1 0.00843287 9.98167 9.83805 -1.19365 -1.68994 0.851393
182 1 1.66841 11.5261 11.5378 -2.25739 0.407659 0.995515
183 1 3.2168 9.90414 9.88678 -0.545713 -0.558089 -0.434177
184 1 4.89566 11.4444 11.6134 -2.09881 0.259043 -0.047485
185 1 6.60024 9.82738 9.88757 -0.139205 -0.874525 -1.38737
186 1 8.07929 11.4297 11.5426 0.149779 1.33956 -0.052182
187 1 9.82316 9.88456 9.88491 -0.521284 1.25738 -0.025926
188 1 11.5525 11.4883 11.5928 -0.999171 1.53628 0.514025
189 1 13.1537 9.90831 9.82734 0.729435 -0.428586 -1.43284
190 1 14.9334 11.565 11.555 0.22969 -2.07323 -0.249676
191 1 0.104156 13.1372 9.85385 -0.328837 0.236471 0.0340406
192 1 1.70567 14.7894 11.5392 -0.666317 1.78137 -1.00046
193 1 3.41365 13.1332 9.89779 -0.920667 0.83451 0.789478
194 1 4.93363 14.8059 11.5058 -0.0745276 0.52144 -0.154529
195 1 6.59428 13.0993 9.90771 -0.841361 -0.333665 0.0690857
196 1 8.16554 14.8428 11.4897 -3.22971 2.447 0.796722
197 1 9.72338 13.1372 9.90633 0.249515 -0.232197 -0.0323325
198 1 11.5181 14.8329 11.629 -0.527391 0.962452 0.0504752
199 1 13.1667 13.1788 9.92924 -1.88718 -0.774031 0.282836
200 1 14.9513 14.7239 11.4448 -2.35266 -0.483167 -1.72722
201 1 16.479 16.4047 13.1718 -2.08289 -1.65581 0.328049
202 1 1.67615 1.57587 14.9242 -0.121007 -0.195823 -1.16206
203 1 3.20592 16.4702 13.1936 0.752667 0.545167 0.825441
204 1 4.82301 1.63551 14.8 0.851214 2.24312 0.454157
205 1 6.46616 16.4173 13.1783 0.600693 -0.0791115 2.90394
206 1 8.19637 1.73294 14.748 -0.960429 -0.877595 0.665618
207 1 9.76657 0.0230851 13.0323 1.06039 -2.14094 0.769382
208 1 11.5468 1.73473 14.787 1.28979 -1.26912 0.216748
209 1 13.1757 16.4795 13.147 -0.465078 0.607775 1.56616
210 1 14.8244 1.60481 14.6806 0.564603 -1.04324 1.26371
211 1 16.5183 3.30855 13.2997 -0.144043 1.76807 -1.91818
212 1 1.60285 4.93509 14.9599 0.215659 0.439074 -1.2545
213 1 3.19277 3.32692 13.2769 -0.127341 -1.02458 1.15185
214 1 4.89226 5.03036 14.986 -0.287075 -2.34445 -1.52207
215 1 6.48458 3.41728 13.1312 0.0775013 -0.280898 0.238269
216 1 8.25835 4.91835 14.7989 -0.452062 0.652217 -0.902043
217 1 10.0384 3.33984 13.0875 0.0880027 0.258328 1.03466
218 1 11.5659 4.9977 14.8468 -0.762822 0.564428 -0.716028
219 1 13.3234 3.34146 13.1892 0.251662 0.319713 0.80349
220 1 14.9059 5.0346 14.8664 1.10339 -1.0165 0.692655
221 1 0.0203914 6.73549 13.2167 0.252588 0.886732 0.460766
222 1 1.63233 8.27536 14.9123 0.753637 -0.0425045 2.01545
223 1 3.24223 6.60666 13.3064 0.658928 0.0375798 1.65559
224 1 4.87503 8.27053 15.0456 2.05747 1.05492 -0.323867
225 1 6.48985 6.55422 13.2935 0.769993 -1.03355 -0.274306
226 1 8.28771 8.16945 14.9514 -0.459357 -1.08892 0.928205
227 1 9.88258 6.58902 13.2117 0.930056 0.173244 0.0273171
228 1 11.48 8.33273 14.839 1.22136 -1.10122 0.515598
229 1 13.2401 6.70426 13.1986 0.670988 0.133832 -0.122142
230 1 14.8426 8.42357 14.9625 0.276769 -1.77367 -0.219834
231 1 16.4524 9.98496 13.2302 -0.722678 0.177962 1.22338
232 1 1.54882 11.6033 14.9593 -2.06054 0.650514 1.02857
233 1 3.26129 9.83748 13.2412 -0.690277 -0.312269 2.37686
234 1 5.03379 11.4844 14.9106 0.483181 -0.347568 0.00466945
235 1 6.49069 9.89302 13.353 0.731613 -0.513248 -0.528725
236 1 8.29979 11.5271 14.8372 -0.48057 -0.0538362 1.54506
237 1 9.85389 9.87422 13.1875 -1.58181 -1.62626 -0.5484
238 1 11.4564 11.4906 14.7748 0.423091 -0.43258 0.0719237
239 1 13.2315 9.93314 13.1548 2.50109 -0.754253 1.28793
240 1 14.8527 11.6129 14.8513 -1.11259 -1.29111 2.1476
241 1 0.103182 13.1852 13.1994 -0.242273 3.25537 1.29863
242 1 1.6745 14.8219 14.8419 0.696161 2.30361 -0.11501
243 1 3.32623 13.1758 13.2686 0.642012 -0.361501 -0.550937
244 1 4.99138 14.8154 14.831 0.14803 2.04955 -0.318662
245 1 6.58542 13.1602 13.2322 -1.3303 0.187139 1.80101
246 1 8.22119 14.8538 14.7691 1.79179 -1.25212 2.46297
247 1 9.86842 13.1128 13.1519 -1.03173 1.87673 2.12226
248 1 11.4787 14.8229 14.6569 -0.883255 2.08055 0.548033
249 1 13.2044 13.2156 13.13 -0.156988 1.25199 1.8789
250 1 14.8714 14.783 14.7508 -2.71253 -1.10102 1.30464
