ITEM: TIMESTEP
130
ITEM: NUMBER OF ATOMS
250
ITEM: BOX BOUNDS pp pp pp
0.0000000000000000e+00 1.6520000000000000e+01
0.0000000000000000e+00 1.6520000000000000e+01
0.0000000000000000e+00 1.6520000000000000e+01
ITEM: ATOMS id type x y z vx vy vz
1 1 0.0380108 0.0276419 0.0110942 0.770285 -0.848891 -0.627577
2 1 1.66273 1.62603 1.57812 1.12505 2.22421 0.949316
3 1 3.35489 0.0782649 0.00066768 -1.81335 0.578137 -0.951794
4 1 5.10792 1.73878 1.61687 -0.243438 0.863888 -0.489668
5 1 6.6621 0.0943943 16.3613 0.436938 -1.1282 -2.05999
6 1 8.39063 1.74888 1.46419 0.734266 1.15812 0.397298
7 1 9.89675 0.202911 16.3137 0.556472 -1.41238 0.476371
8 1 11.6377 1.63882 1.69557 0.550112 -1.66336 0.887202
9 1 13.1446 0.0868522 16.3701 0.364317 0.215362 1.38216
10 1 14.8126 1.70841 1.62626 -0.188522 -0.323439 0.801091
11 1 16.409 3.34458 16.4509 1.24099 -0.443133 0.304409
12 1 1.56483 4.91466 1.64063 0.12927 -1.63301 0.037308
13 1 3.31946 3.35972 0.184165 -0.395112 -1.2071 -0.510091
14 1 5.06643 4.94399 1.62795 0.375388 -1.15563 1.41976
15 1 6.75251 3.42448 16.4747 0.539458 -2.30611 -0.836322
16 1 8.44961 4.92445 1.73625 0.055331 0.0581509 -0.278022
17 1 10.0423 3.29582 16.4646 -1.38395 0.753844 2.04277
18 1 11.603 4.96146 1.69502 0.253507 1.98629 0.00543795
19 1 13.2149 3.45012 0.0222465 0.955148 -0.203123 1.56544
20 1 14.9359 5.07341 1.62726 -1.7628 -0.422476 -0.339107
21 1 16.4794 6.68274 0.0542337 -0.215577 0.0957554 -2.59962
22 1 1.63307 8.191 1.7337 -0.996391 -0.361282 -0.78058
23 1 3.32328 6.55919 0.212266 1.15812 1.37618 -0.948764
24 1 5.01918 8.16929 1.73699 -0.335458 0.575099 0.370898
25 1 6.70286 6.44142 0.0512542 0.521621 1.21563 0.671998
26 1 8.20569 8.09722 1.81396 -1.22877 -0.837439 2.16594
27 1 9.96994 6.48039 0.00727023 -0.686648 2.20677 -1.39392
28 1 11.4997 8.31354 1.63636 1.3009 1.55154 -1.75132
29 1 13.2332 6.67953 0.0242381 0.778997 -0.758958 0.161462
30 1 14.7914 8.24733 1.71244 1.65021 -1.13355 -2.08933
31 1 16.4605 9.8801 0.0700014 0.43912 0.182079 -0.154788
32 1 1.71807 11.5024 1.65694 -2.36756 0.578287 -0.491458
33 1 3.28854 9.71909 0.0901823 1.44756 0.60526 -0.868297
34 1 5.11796 11.5151 1.6309 -3.63016 0.962164 -0.104245
35 1 6.68216 9.80351 0.160901 -0.844733 -0.0803659 -0.270398
36 1 8.24584 11.6186 1.69327 -0.395668 -0.76754 0.746109
37 1 9.91435 9.98913 0.0188539 -0.16657 -2.30687 0.586235
38 1 11.3699 11.676 1.58614 0.415226 0.61915 0.306627
39 1 13.1485 9.96596 0.0806142 2.2455 0.447978 -0.678181
40 1 14.662 11.5625 1.77956 0.00799605 -1.15925 -1.14168
41 1 16.4293 13.2719 0.147054 1.03455 -1.01909 0.283099
42 1 1.65844 14.9289 1.57048 -1.69154 -2.71996 2.00538
43 1 3.40208 13.1748 0.142594 -0.390797 0.233129 -0.232595
44 1 5.15465 14.9547 1.52124 -0.562854 -0.207235 1.1804
45 1 6.67255 13.2165 0.00726837 -2.69308 -0.165598 0.401157
46 1 8.3333 14.9326 1.44451 -1.12494 0.894773 -0.0427766
47 1 10.0178 13.2702 16.4058 1.8916 -0.817363 -2.92967
48 1 11.5643 14.9125 1.46726 1.55654 0.697533 -0.558411
49 1 13.1304 13.296 16.4456 -0.813314 1.94459 0.477619
50 1 14.6647 14.9002 1.54719 0.859007 1.21949 1.06928
51 1 16.4335 16.3905 3.20098 -1.19976 2.05602 -0.259246
52 1 1.62584 1.59875 4.75915 4.14111 2.78127 0.773745
53 1 3.44219 0.00126945 3.24479 0.544132 1.29424 1.05852
54 1 4.91745 1.67892 4.84889 0.450937 -0.334873 0.626384
55 1 6.77847 0.0227956 3.30323 0.622175 1.13511 0.595561
56 1 8.37147 1.68703 4.85531 -0.550406 0.0056523 -0.98144
57 1 9.9556 16.4521 3.19032 -0.337497 0.583953 1.31726
58 1 11.6007 1.57946 4.99646 0.406438 -1.59788 -1.09762
59 1 13.1404 0.072974 3.21624 -0.52528 -1.13484 -2.4677
60 1 14.8962 1.58801 4.97613 -1.12836 2.02619 -0.71305
61 1 16.5108 3.21802 3.20259 1.07859 0.701144 2.15537
62 1 1.63027 4.85577 4.76652 0.838779 -1.91295 0.416296
63 1 3.39556 3.18429 3.20124 1.57455 0.180821 -1.30085
64 1 5.02671 4.85011 4.88856 -0.502794 -0.191975 0.190612
65 1 6.74202 3.23854 3.23696 -0.643898 -0.206451 -0.603174
66 1 8.33342 4.91098 4.99664 0.881949 -0.128013 0.487989
67 1 10.1098 3.21561 3.33356 0.242778 1.72359 1.12511
68 1 11.6996 4.92134 4.91581 -0.0215757 0.888937 0.476821
69 1 13.3723 3.30437 3.2868 0.792239 -0.211729 -0.100003
70 1 14.8609 4.90247 4.91092 -0.902359 0.0617118 0.0585414
71 1 0.0973005 6.66062 3.3623 0.831267 0.758809 -0.85185
72 1 1.68487 8.32764 4.88192 1.5788 0.642293 1.17362
73 1 3.41015 6.54835 3.36007 -0.702735 -0.686271 0.444635
74 1 4.91554 8.23123 5.04375 -0.699705 -0.520283 0.142101
75 1 6.63558 6.63459 3.46556 0.875385 -0.7982 0.197065
76 1 8.36115 8.13585 5.10443 1.7585 1.06261 -0.719156
77 1 10.1257 6.66322 3.34402 -1.47405 0.637747 -0.51581
78 1 11.5871 8.30254 4.92158 1.01265 -0.225293 0.922662
79 1 13.2926 6.65158 3.2731 0.832136 -0.157404 -1.40437
80 1 14.8552 8.33782 4.93508 3.33698 0.595615 -0.40199
81 1 0.0229847 10.0794 3.28412 -0.15921 -0.49578 -1.35189
82 1 1.7633 11.6203 4.80996 -1.16353 0.617047 -0.109809
83 1 3.44986 9.87519 3.28566 -1.88096 -0.465062 1.01261
84 1 5.07566 11.6287 4.89444 0.0532242 -0.45719 -1.457
85 1 6.69066 9.85693 3.4136 -1.07085 -0.466254 1.12649
86 1 8.22861 11.53 5.0005 -0.0473777 -1.94694 0.369995
87 1 9.90316 10.0654 3.27822 -1.67408 0.177109 0.623783
88 1 11.3705 11.6036 4.95916 0.702164 -1.2586 0.150978
89 1 13.1296 10.0186 3.34749 1.12043 -0.396719 0.249629
90 1 14.6532 11.662 4.88729 -2.08337 -0.94878 0.553109
91 1 16.4725 13.3949 3.12851 -0.859288 -1.45859 0.0734981
92 1 1.58507 14.9428 4.97272 0.0430879 -0.628879 0.872414
93 1 3.41453 13.3706 3.14406 -2.10353 -0.235065 -0.285565
94 1 5.07143 15.0082 4.96325 -1.76538 -1.42027 0.649481
95 1 6.65038 13.3817 3.31263 -3.23062 2.09159 0.988999
96 1 8.20418 14.9667 4.96316 0.417126 -0.691697 -0.878873
97 1 9.88987 13.2311 3.34304 -2.43508 -1.17619 0.682031
98 1 11.5858 14.9564 4.86226 -0.486492 -1.99023 0.741004
99 1 13.1333 13.2589 3.33519 -2.0333 0.745322 -0.0997707
100 1 14.7428 14.9671 4.91199 -1.11303 0.86516 -0.836146
101 1 0.063107 16.4949 6.58262 1.11425 1.68563 1.15823
102 1 1.5289 1.72515 8.26909 0.865636 -0.172817 -0.324134
103 1 3.30616 0.050509 6.61157 0.0757486 -1.25168 -0.296922
104 1 4.81321 1.8014 8.23755 -1.02795 -0.89051 -0.435192
105 1 6.6082 0.0951174 6.629 0.470815 0.414142 -0.1342
106 1 8.24847 1.76511 8.35687 0.319512 -0.21286 -0.974861
107 1 9.81326 0.023361 6.65078 -0.28325 -0.578057 -1.1354
108 1 11.6862 1.6432 8.30396 1.21782 0.0785882 -1.10602
109 1 13.3075 16.4963 6.73762 -0.32443 0.0225441 0.0890497
110 1 14.9183 1.66334 8.17643 1.02803 -1.4967 0.495186
111 1 0.0885388 3.34109 6.56092 1.46162 -2.44184 0.277962
112 1 1.67122 4.8781 8.21455 -0.682182 1.6763 0.379507
113 1 3.15672 3.20527 6.48664 0.343765 0.20921 -0.570776
114 1 4.81566 4.88322 8.25952 0.913182 2.04305 -0.971708
115 1 6.63824 3.34233 6.61622 -1.98214 0.845894 -0.199247
116 1 8.28642 4.74946 8.3172 -2.60432 2.32681 -0.507079
117 1 9.98595 3.28477 6.66274 -0.150711 0.542037 -0.931795
118 1 11.6132 4.89635 8.34992 0.0156915 1.48514 -0.22168
119 1 13.2204 3.34326 6.57648 0.524981 -0.284587 -1.4561
120 1 14.9567 4.91264 8.33692 -0.650749 -1.97955 0.107044
121 1 16.4898 6.44425 6.58351 -0.0242829 1.05652 0.342259
122 1 1.60826 8.30383 8.04471 0.965106 0.958207 1.42599
123 1 3.21147 6.54704 6.47731 -0.620897 0.0961735 0.966668
124 1 4.85798 8.01472 8.22038 0.869466 0.941948 0.543825
125 1 6.56723 6.49813 6.71214 2.72217 -0.420774 -1.30761
126 1 8.30115 8.09735 8.26487 1.91977 1.0506 1.32284
127 1 10.0484 6.51747 6.68694 -1.12808 -1.33637 -1.5735
128 1 11.6265 8.11491 8.2758 1.4844 -0.0742438 -1.22627
129 1 13.3607 6.50315 6.6339 2.62392 0.811566 -0.0824821
130 1 14.8527 8.29753 8.10643 -2.02075 0.0581428 0.570824
131 1 16.405 10.0284 6.47883 0.552424 -1.72395 -0.505934
132 1 1.75444 11.6121 8.09541 0.69164 0.837521 -1.40239
133 1 3.33644 10.0542 6.5384 0.632024 2.11609 -1.32047
134 1 5.05684 11.5673 8.15241 -1.29245 -0.422639 1.34412
135 1 6.72885 9.77188 6.60186 2.17286 -1.28818 0.890514
136 1 8.25269 11.5796 8.36725 -0.838593 -0.864403 1.52373
137 1 9.88775 9.92188 6.78185 -0.651347 0.383671 0.537629
138 1 11.4523 11.4632 8.50176 0.214449 -1.73612 -1.01258
139 1 13.112 9.99723 6.55455 0.0855829 -0.352784 0.644984
140 1 14.8165 11.5117 8.11493 -2.37089 -0.271915 -0.0684758
141 1 16.4938 13.2996 6.41459 -0.446754 0.407726 0.914833
142 1 1.79925 14.7691 8.115 -0.87419 0.765663 2.70139
143 1 3.42056 13.2693 6.42639 0.0218805 -0.276026 -0.496064
144 1 4.97446 14.9465 8.28121 -0.109046 -1.01909 -0.196741
145 1 6.75013 13.217 6.61449 1.13488 0.472026 -0.937206
146 1 8.28259 14.9963 8.31489 0.89523 -0.145624 -0.396137
147 1 9.91168 13.1726 6.6343 -1.88043 -0.665147 0.322517
148 1 11.4424 14.9517 8.27392 1.73233 0.388996 0.678859
149 1 12.982 13.2852 6.73573 0.118785 -0.927535 1.51597
150 1 14.9873 14.7872 8.16113 -0.935157 0.157573 0.353253
151 1 0.013571 16.3928 9.86526 -0.523976 -0.777135 1.9102
152 1 1.46702 1.55733 11.6637 -1.5894 0.15804 0.440074
153 1 3.2719 16.4629 9.89501 1.40427 -0.225086 2.62221
154 1 4.76884 1.70785 11.6769 0.0784107 -0.533926 0.613359
155 1 6.4031 0.079124 9.88108 1.65263 -1.0159 -0.938273
156 1 8.25198 1.72619 11.5344 -0.618644 -0.277586 -2.61327
157 1 9.94235 0.201519 9.85326 -0.0502759 0.602075 0.533154
158 1 11.6728 1.59999 11.5453 -0.92724 1.0478 -1.86583
159 1 13.3863 0.00779847 9.79087 -1.76661 -0.330931 -1.6103
160 1 14.9867 1.59395 11.5101 0.0126995 -0.511194 1.3296
161 1 16.4658 3.31754 9.96597 -0.0641886 -1.06429 0.809272
162 1 1.60449 5.10216 11.7175 -0.23029 0.735056 0.491114
163 1 2.93725 3.32301 10.0875 0.357623 -0.22062 -0.803247
164 1 4.68168 5.05945 11.735 0.082304 -0.0889363 -1.54351
165 1 6.32431 3.29952 10.0609 -0.857007 1.05178 2.07272
166 1 8.12574 4.97982 11.6209 -1.49402 -1.28829 -1.32801
167 1 10.0067 3.34844 10.1469 -0.225542 1.05095 -2.08991
168 1 11.6758 5.00158 11.7044 -2.07414 -1.11899 -0.159086
169 1 13.3016 3.364 9.96439 -0.461047 -1.21783 -0.573738
170 1 14.9085 5.08052 11.6764 -0.0584955 1.31349 -2.05115
171 1 16.4515 6.69274 9.85111 -2.75354 2.16163 3.23974
172 1 1.60235 8.39247 11.4797 0.0545044 1.95502 0.771285
173 1 3.16821 6.58394 9.79566 0.322647 -1.40425 0.127146
174 1 4.79709 8.24034 11.6187 -0.287731 1.24142 0.321183
175 1 6.32827 6.54662 9.95606 -1.77269 -2.1501 1.64269
176 1 8.0168 8.17492 11.5667 2.3637 -0.550672 0.103836
177 1 9.91656 6.46889 9.92533 -0.332798 -1.45774 0.404499
178 1 11.5288 8.22224 11.6466 0.796922 -2.06854 0.950292
179 1 13.3061 6.56648 9.88801 -3.83029 -1.00926 0.254645
180 1 14.9162 8.30931 11.4314 0.458982 -0.0967507 0.0792525
181 1 0.0433213 9.99586 9.7976 2.06566 0.436457 -0.773919
182 1 1.80365 11.5116 11.6001 -0.0730387 -0.0369951 -3.50137
183 1 3.28832 9.95626 9.79019 0.635354 0.0461189 -1.99057
184 1 5.09821 11.4118 11.6918 1.00954 -0.943655 -1.39658
185 1 6.43575 9.72918 9.91522 2.58669 1.59768 1.12574
186 1 8.1353 11.4797 11.6053 -0.0130618 0.813732 -0.55439
187 1 9.84741 9.70874 10.0268 -0.118405 -0.0246339 -0.610085
188 1 11.5901 11.4487 11.6853 0.627032 1.43529 0.268102
189 1 13.1278 9.7966 9.96852 -0.974401 1.24522 1.09522
190 1 15 11.5247 11.5491 0.674326 -0.500846 -0.267812
191 1 0.0800047 13.1587 9.78174 1.50145 0.739671 0.297668
192 1 1.71985 14.7904 11.5787 2.16241 0.457503 1.43297
193 1 3.47262 13.0885 9.92862 -0.00148304 2.16076 -0.715121
194 1 4.95388 14.8359 11.6102 0.874424 0.635992 0.201123
195 1 6.59865 13.1868 9.82304 0.5827 0.343836 0.688425
196 1 8.19528 14.871 11.5148 -0.556459 -0.0904162 -1.21709
197 1 9.92542 13.1626 10.0463 0.00874433 -0.827491 0.590368
198 1 11.5846 14.9722 11.4656 1.23915 0.911399 -0.0605069
199 1 13.2803 13.2311 9.95431 -0.868451 -1.70081 -1.42702
200 1 14.9408 14.7438 11.5384 -0.279943 -0.939172 -0.367887
201 1 16.511 16.486 13.1987 -1.11142 0.269898 1.05319
202 1 1.55286 1.67261 14.8818 0.0322916 0.439958 1.87646
203 1 3.20905 16.4225 13.3652 1.29619 1.65691 1.21723
204 1 4.91166 1.63156 14.8431 0.487402 -1.15913 -1.45552
205 1 6.53417 16.4745 13.0721 -0.631074 -2.01503 0.857013
206 1 8.28664 1.70779 14.653 0.287576 -2.20751 -0.618765
207 1 9.85125 0.0320471 13.1049 1.33101 0.612037 -1.42092
208 1 11.5972 1.72478 14.7301 1.0709 -2.61648 0.50149
209 1 13.3827 0.00951509 13.127 0.139268 -1.70091 -0.0605284
210 1 14.7791 1.60372 14.7904 -0.128762 1.85494 0.712825
211 1 16.4067 3.32589 13.2854 -0.296153 -0.962959 1.44761
212 1 1.60013 4.9961 14.8782 0.0556391 -1.45837 -1.28531
213 1 3.10181 3.28669 13.3444 0.0256818 1.23904 -0.663106
214 1 4.84491 4.95584 14.9939 0.437664 -1.0472 -2.20691
215 1 6.46993 3.28506 13.2371 0.500522 0.675302 -0.56563
216 1 8.2508 4.87759 14.7905 0.834186 2.90043 0.81937
217 1 9.86779 3.31229 13.0567 -1.04223 1.37386 -0.00538143
218 1 11.6134 4.92473 14.8514 -2.7664 -0.795945 2.62667
219 1 13.1866 3.32699 13.165 -1.36154 1.27896 -0.227442
220 1 14.7982 5.01787 14.8022 -0.548426 0.639879 -0.60551
221 1 16.4014 6.77604 13.2497 -1.59103 0.42831 0.276559
222 1 1.60678 8.20904 14.8741 0.43549 -0.801859 0.901741
223 1 3.19749 6.74364 13.339 0.441503 -1.52954 -1.72342
224 1 4.9382 8.15987 15.0606 0.83562 0.677389 -0.132348
225 1 6.53509 6.59556 13.3693 0.409562 -0.328768 1.12043
226 1 8.20468 8.25023 15.1196 0.22993 2.04063 0.273645
227 1 9.88723 6.65549 13.2706 -1.99085 -0.668454 1.25069
228 1 11.4012 8.27917 14.9182 0.0392531 0.415461 0.00921292
229 1 13.143 6.78047 13.215 -1.62481 -0.768045 -2.19502
230 1 14.8021 8.28096 14.995 0.343458 -1.7136 0.962262
231 1 0.000451233 9.86133 13.2558 0.665994 -1.28811 1.37008
232 1 1.66294 11.5089 14.9794 -0.70128 -0.927177 -0.0843366
233 1 3.32991 9.74952 13.3262 -0.0336996 -0.428703 -2.91634
234 1 4.88717 11.5309 15.0269 -0.333722 -0.483438 -2.44482
235 1 6.62985 9.86903 13.4469 1.36058 -1.62418 -0.196945
236 1 8.26988 11.5658 14.8714 1.67295 1.57911 1.31402
237 1 9.83549 9.90338 13.3583 1.59628 0.884929 1.85969
238 1 11.6907 11.5535 14.7835 -0.672178 -0.72413 -0.403758
239 1 13.255 9.95817 13.2503 1.62769 0.716814 -1.11684
240 1 14.9734 11.5195 14.9206 2.47431 1.51638 0.400608
241 1 0.140806 13.1235 13.2472 -1.48884 0.250681 1.0848
242 1 1.6581 14.6908 14.9254 1.0912 0.473127 0.551396
243 1 3.39655 13.1428 13.2817 -1.15815 -0.163885 -0.810063
244 1 5.01974 14.9213 14.9909 -0.493753 -0.851421 1.99149
245 1 6.58867 13.1073 13.2738 -0.434776 0.693369 -1.25724
246 1 8.16008 14.8156 14.7316 -0.819764 0.555467 -0.128428
247 1 9.95273 13.2564 13.1908 1.11325 2.26056 2.55367
248 1 11.5494 14.9748 14.7157 0.4859 1.47455 -1.62825
249 1 13.3284 13.1742 13.1474 0.493349 1.16475 0.326022
250 1 14.8466 14.8247 14.7951 -0.427331 -0.126716 0.134065
