ITEM: TIMESTEP
660
ITEM: NUMBER OF ATOMS
250
ITEM: BOX BOUNDS pp pp pp
0.0000000000000000e+00 1.6520000000000000e+01
0.0000000000000000e+00 1.6520000000000000e+01
0.0000000000000000e+00 1.6520000000000000e+01
ITEM: ATOMS id type x y z vx vy vz
1 1 0.0817012 16.4956 0.0231762 0.0133834 -1.26971 1.14839
2 1 1.57237 1.65289 1.72767 0.497734 -1.38128 0.78069
3 1 3.33959 0.0913592 16.4959 -3.21008 0.0677798 1.26029
4 1 4.94957 1.6658 1.65699 -0.440159 -0.263837 -0.945765
5 1 6.55495 16.3826 0.167734 -0.126765 0.960407 -0.648645
6 1 8.15806 1.56078 1.77844 -2.2055 -1.20452 -0.787183
7 1 9.84931 16.4291 0.0734019 -0.740887 0.431519 -0.642379
8 1 11.5512 1.53392 1.85132 1.39078 -2.25999 2.6009
9 1 13.3129 16.4573 0.0840059 1.27225 0.349868 -0.798955
10 1 14.926 1.62362 1.7749 0.501604 0.974816 -0.171303
11 1 0.0389799 3.44758 0.0180402 -0.891562 -0.793711 -1.12228
12 1 1.64665 5.04511 1.69781 -1.79465 1.27714 -0.497964
13 1 3.21483 3.31713 16.5197 1.33342 1.00062 -0.889143
14 1 4.85587 4.9199 1.57368 0.435697 -2.38137 0.375814
15 1 6.58182 3.26754 0.068337 0.161881 0.329644 -0.759918
16 1 8.03023 4.96947 1.70379 1.16476 0.118919 1.41094
17 1 9.94503 3.25371 0.102485 1.9354 -0.301686 0.143966
18 1 11.4407 4.9514 1.70415 -1.41914 0.733701 0.251325
19 1 13.204 3.35331 0.125907 -1.11106 -1.3683 1.78379
20 1 14.7658 4.96592 1.73781 1.10117 -0.553954 0.854671
21 1 0.00701133 6.56358 0.0233026 -1.43712 -0.200538 -1.19262
22 1 1.63999 8.28732 1.66738 -2.07319 -1.4503 0.929367
23 1 3.26593 6.65884 16.4201 1.19366 -0.77496 1.74145
24 1 4.91172 8.35049 1.49757 0.848829 1.5705 -0.279511
25 1 6.6914 6.60603 16.4894 -1.18698 0.298091 -0.832521
26 1 8.17091 8.23311 1.6223 0.588679 -1.41925 -0.857086
27 1 9.82404 6.57739 16.3707 0.0937787 -0.789577 -1.38484
28 1 11.511 8.18488 1.62208 1.52755 1.04019 -0.25958
29 1 13.1482 6.5253 16.4865 1.99042 0.522804 0.0572918
30 1 14.8042 8.2367 1.63354 -1.82399 -0.161788 -1.2713
31 1 0.028049 9.91623 16.5004 -0.345025 -0.805637 -0.137475
32 1 1.63751 11.4911 1.63701 -0.13533 -0.322841 -1.0709
33 1 3.2637 9.97286 16.3842 -1.83574 -0.171997 -0.105697
34 1 4.94589 11.4534 1.53803 1.16044 -0.927518 -0.896071
35 1 6.71304 9.88316 16.2804 -0.329734 -0.467889 -0.0766019
36 1 8.1733 11.5321 1.57221 -0.582939 -0.450497 0.799814
37 1 10.0427 9.83573 16.3909 -0.193595 -1.44649 -0.0832469
38 1 11.5487 11.4374 1.62421 -0.495722 -0.537045 -2.06681
39 1 13.2618 9.877 16.3427 -1.0264 -1.38319 2.43568
40 1 14.8562 11.5981 1.79393 -1.67727 -1.43233 0.725926
41 1 16.4407 13.2155 0.120455 -0.122272 -0.392257 -1.23195
42 1 1.63293 14.7231 1.59196 -0.237782 0.323175 0.494171
43 1 3.30115 13.1348 16.4938 -0.612898 -1.10915 -1.69333
44 1 4.87634 14.7401 1.67226 1.24864 -0.276167 1.70403
45 1 6.60373 13.0533 16.5175 1.60455 1.36066 0.44713
46 1 8.13952 14.8032 1.8392 -0.472077 -0.0336597 -0.777882
47 1 9.85744 13.1607 0.0986945 -0.513037 0.0630808 -1.22871
48 1 11.597 14.9109 1.66646 0.731777 0.713817 -2.23069
49 1 13.2797 13.212 0.0631226 -0.715887 -0.59298 -0.112044
50 1 14.8566 14.8492 1.74052 1.7347 2.62096 0.0780315
51 1 0.0758317 16.347 3.38244 0.577267 -2.8829 -0.567702
52 1 1.66507 1.6799 5.11031 1.54342 -1.31414 1.05419
53 1 3.33933 16.4084 3.34909 -0.0302742 0.651531 -0.595702
54 1 5.00057 1.53634 5.00205 -1.9671 -0.153481 1.01131
55 1 6.45579 16.3845 3.44333 -0.315293 0.154333 0.774407
56 1 8.30597 1.4903 5.00544 0.0190343 -0.119465 0.623309
57 1 9.8201 16.3469 3.41468 -2.04489 -1.02011 0.612174
58 1 11.4934 1.55916 5.07848 0.0162877 1.04032 0.630716
59 1 13.2775 16.4849 3.38417 -0.587335 -0.496805 -0.932536
60 1 14.9185 1.72157 5.0508 -0.245988 -1.10617 -0.724748
61 1 0.0456362 3.2767 3.39172 -0.599387 2.4381 0.37005
62 1 1.6048 5.02223 5.01557 -0.530011 -1.09272 -1.1975
63 1 3.26567 3.18424 3.35828 0.995413 0.730764 -0.214726
64 1 4.87777 5.00411 4.82882 2.76308 0.00623362 -2.26086
65 1 6.58429 3.24408 3.37182 -2.11943 -0.744006 -0.425895
66 1 8.13499 4.95022 4.83932 1.41305 -0.167839 0.192439
67 1 9.8028 3.23237 3.32069 2.52717 0.0974784 1.92294
68 1 11.3997 4.88966 4.83396 -0.224785 -1.30619 -0.952728
69 1 13.151 3.17828 3.2865 -1.3801 0.609878 1.70014
70 1 14.7606 4.89534 4.96526 -0.401012 -0.563852 -0.974998
71 1 16.5003 6.58312 3.44804 0.182001 -0.976272 -1.74477
72 1 1.65877 8.25383 5.07853 -0.745714 1.39878 -1.79514
73 1 3.30134 6.7356 3.25709 0.110851 -1.57154 1.04709
74 1 5.01253 8.30428 5.02827 -1.75971 0.450461 1.70797
75 1 6.39797 6.67535 3.31723 0.363136 -2.64101 -0.244552
76 1 8.24327 8.36072 4.94489 -0.00387494 -1.58023 0.753037
77 1 9.84599 6.75029 3.28586 0.011199 -2.82649 1.31896
78 1 11.5973 8.47019 4.91091 0.411519 -0.879796 -0.00394766
79 1 13.1064 6.67936 3.25457 0.359207 1.40513 0.119076
80 1 14.8592 8.09413 5.08739 -0.230238 1.34304 0.324565
81 1 0.0911708 9.93888 3.37635 -1.70915 -0.496242 0.435179
82 1 1.66203 11.4461 4.96072 -0.921429 -2.49585 -0.595093
83 1 3.28259 9.96711 3.19633 -1.02263 1.77645 -0.616527
84 1 4.86468 11.4782 4.93435 -0.822845 -0.0324315 -0.447729
85 1 6.55432 9.83011 3.24283 -2.12481 -1.24953 -0.618477
86 1 8.22604 11.612 4.89722 -0.754733 0.0473657 -0.816631
87 1 9.80559 9.93897 3.35151 -0.673244 -0.0913054 -0.385645
88 1 11.549 11.4785 4.9026 -0.551981 1.81017 1.40855
89 1 13.2905 9.84701 3.36 1.27312 -0.28318 -2.42905
90 1 15.0159 11.4677 5.00991 -0.373115 -0.770692 -0.803642
91 1 16.4839 13.261 3.51242 0.285607 -0.27201 0.298409
92 1 1.70335 14.8055 5.1384 -0.11173 1.31861 0.0209918
93 1 3.18589 13.0543 3.30063 -0.911205 0.513906 -2.80448
94 1 4.87242 14.6527 5.02245 -0.971644 -1.92593 0.0128867
95 1 6.39304 13.064 3.2825 -0.818263 1.12092 -0.046153
96 1 8.16396 14.7427 5.02507 0.768234 0.0459866 -2.02824
97 1 9.9376 13.1712 3.2981 -1.47889 -1.63013 0.0144488
98 1 11.6002 14.8539 5.05579 0.872528 -0.431766 2.4816
99 1 13.2278 13.1919 3.48451 -0.689328 -1.22646 1.13974
100 1 14.8496 14.9243 5.11693 0.540077 2.01621 -0.171175
101 1 0.0219959 0.0344201 6.74809 0.0396957 -0.713186 -2.58294
102 1 1.68577 1.76925 8.40624 1.23944 1.79598 -0.751908
103 1 3.40101 16.5084 6.69383 1.00384 -0.16323 0.513185
104 1 5.08265 1.73514 8.16587 0.0405788 0.760799 0.179152
105 1 6.52951 16.3235 6.6553 -1.30246 2.327 0.778783
106 1 8.34681 1.68025 8.19266 -2.39709 -0.335195 1.5755
107 1 9.9038 16.3194 6.76915 -0.0138422 0.338967 0.161165
108 1 11.6241 1.63126 8.27632 0.6803 0.145246 -1.22865
109 1 13.284 0.010774 6.70913 -0.356574 0.62655 1.32172
110 1 14.8477 1.77079 8.26589 -2.61918 2.32259 1.68475
111 1 16.4802 3.37937 6.77838 1.61854 -0.214632 -0.0801387
112 1 1.81453 4.99543 8.26602 0.235242 0.648488 2.04657
113 1 3.41503 3.28751 6.52751 1.05889 -1.94738 -0.905941
114 1 4.9519 4.97916 8.22272 1.20036 -0.356888 -0.913901
115 1 6.74891 3.41624 6.6193 -0.772903 1.80497 0.11626
116 1 8.37653 4.97062 8.30305 -0.605414 -1.85213 -1.7274
117 1 9.84235 3.32127 6.601 0.219648 -0.884648 -1.53954
118 1 11.4637 4.90284 8.35 0.483346 -0.0719698 0.0242975
119 1 13.0362 3.25881 6.63434 -0.508482 -0.417237 0.849952
120 1 14.8065 4.96066 8.28892 0.489628 0.784561 2.82624
121 1 16.4771 6.50711 6.73536 1.01373 -0.207946 -2.30345
122 1 1.68374 8.32245 8.33778 -2.387 0.307828 -0.103133
123 1 3.35202 6.69431 6.56719 -0.332416 -0.755921 -0.381325
124 1 5.04392 8.3577 8.2246 0.900475 0.950825 -1.34099
125 1 6.59017 6.61064 6.72295 -0.801197 0.309712 -2.75378
126 1 8.38558 8.4221 8.137 2.2386 -1.13636 -0.601092
127 1 9.96584 6.64674 6.38771 0.277746 1.68781 -0.0808676
128 1 11.5338 8.44697 8.22736 -0.845661 0.106763 0.465904
129 1 13.0558 6.47589 6.72588 -1.79824 -2.08206 -0.922969
130 1 14.9234 8.22253 8.23761 -1.20383 0.906233 -0.620875
131 1 0.107361 9.88757 6.72881 -0.725033 0.205262 0.245473
132 1 1.5862 11.6195 8.37667 1.0813 -2.11239 -1.10244
133 1 3.29226 9.93342 6.65807 1.5267 1.37473 -1.79533
134 1 4.81561 11.6465 8.33391 -1.00655 0.373906 -2.12999
135 1 6.60206 10.007 6.65226 -0.40432 0.329795 -0.982515
136 1 8.1576 11.78 8.18119 -1.18973 2.28799 2.81049
137 1 9.9168 10.1172 6.60712 -0.878292 -0.674186 -0.336768
138 1 11.4287 11.6798 8.26112 -0.312638 -1.51357 -0.134908
139 1 13.2648 9.95428 6.60524 -0.13689 1.78739 0.950539
140 1 14.8947 11.5629 8.2394 2.53744 -0.483438 0.934011
141 1 0.00833026 13.3007 6.74597 -1.3594 1.25039 0.354174
142 1 1.67987 14.9547 8.48275 0.0586483 0.959392 3.09753
143 1 3.18045 13.0883 6.66983 1.43494 -0.390849 1.63351
144 1 4.96465 14.8226 8.28079 0.696522 0.824141 -2.95191
145 1 6.44918 13.0722 6.57493 -0.562813 -0.401377 0.656208
146 1 8.28198 14.7303 8.14696 0.290428 -1.85423 3.20467
147 1 9.97947 13.1484 6.47928 0.99982 -0.146138 1.15117
148 1 11.5841 14.8361 8.25399 0.365857 0.277181 -0.357506
149 1 13.2393 13.1154 6.61354 -3.14598 -1.02496 1.62378
150 1 14.8743 14.916 8.3434 -1.6241 0.162895 1.44642
151 1 16.4762 16.5131 9.93994 0.276266 -1.07734 1.57224
152 1 1.7067 1.67762 11.5158 1.24135 2.72007 0.609144
153 1 3.39753 0.10973 9.78481 1.20524 1.91513 2.43057
154 1 5.16165 1.61127 11.5289 -0.318115 1.51157 0.947903
155 1 6.67216 16.4764 9.79328 0.24934 1.67797 -1.43128
156 1 8.32246 1.67211 11.5368 0.146704 -0.0803982 -0.754889
157 1 10.0274 16.4308 9.81175 1.43094 0.889264 -0.997544
158 1 11.5809 1.57419 11.6602 0.999718 -1.87833 -0.353812
159 1 13.2392 16.5084 9.86551 -1.69007 -1.65278 1.39729
160 1 14.8497 1.62779 11.5022 0.836345 -0.378228 1.18282
161 1 0.0680835 3.38317 10.0486 1.08953 -0.377387 -2.29407
162 1 1.84601 4.94688 11.4862 1.90568 -1.0036 -0.689115
163 1 3.34422 3.32655 9.94259 -1.21174 -0.78487 0.787019
164 1 5.20345 5.04349 11.472 -0.865249 0.269625 -0.223823
165 1 6.59824 3.32878 9.78656 -0.358008 -0.554823 1.20843
166 1 8.30481 5.00286 11.5492 -0.744639 1.53825 -0.794533
167 1 9.95611 3.29833 9.97421 1.22419 3.19908 0.173536
168 1 11.5313 4.90858 11.6315 0.69205 1.27404 1.35371
169 1 13.2147 3.31914 9.97942 1.92764 -0.697552 2.08415
170 1 14.87 5.14089 11.5697 1.92281 0.397955 -0.880745
171 1 0.0165369 6.57873 9.8917 -2.2386 0.334994 -0.101745
172 1 1.81046 8.24456 11.4834 0.0956981 1.7484 1.20933
173 1 3.3262 6.62421 9.78228 0.165253 0.463014 -0.392234
174 1 5.08557 8.25129 11.3885 0.484007 -2.51376 -1.17565
175 1 6.62353 6.70195 9.67435 2.27617 -0.142037 -1.24527
176 1 8.37967 8.48735 11.3418 0.424648 -0.406244 -0.112803
177 1 9.8774 6.65888 9.79607 1.19012 1.4502 1.64702
178 1 11.6703 8.27477 11.4094 -1.81995 0.931927 -0.246598
179 1 13.1667 6.64869 9.75637 -0.215998 -1.70372 -1.21738
180 1 14.9176 8.25505 11.5438 -0.438317 -0.0814595 -1.85
181 1 16.4475 9.94417 9.95526 2.08305 1.31861 -2.27519
182 1 1.63553 11.572 11.625 0.389001 1.88468 -1.09739
183 1 3.21321 9.87419 9.89397 -0.693749 1.98436 -2.6471
184 1 4.91781 11.6672 11.4645 0.63049 0.178414 1.94187
185 1 6.66938 10.0231 9.77867 -0.628333 0.750205 0.894151
186 1 8.22135 11.7185 11.4946 1.10483 1.15703 0.437442
187 1 9.95883 10.0983 9.8326 -0.173029 -1.25881 -0.894469
188 1 11.5858 11.5079 11.4796 -0.0844133 -0.942293 0.277128
189 1 13.3032 9.83267 9.77243 -1.54879 0.101806 -1.67417
190 1 14.8541 11.5392 11.5687 -0.167309 0.151585 0.850463
191 1 16.4175 13.3436 10.0088 0.308873 -1.16752 -1.54258
192 1 1.70815 15.1368 11.5926 0.653794 -1.04221 1.56054
193 1 3.2412 13.3191 9.9534 2.68579 2.86552 -0.441318
194 1 5.01603 15.0519 11.5693 -0.694051 -1.70745 0.962125
195 1 6.50648 13.2853 9.89485 -1.90567 -0.974687 -0.446752
196 1 8.25517 14.852 11.6611 -0.237011 -0.789388 -0.766396
197 1 9.88971 13.2894 10.0455 3.3282 1.68339 1.33251
198 1 11.5135 14.8808 11.6106 -2.07943 0.995918 1.31752
199 1 13.1814 13.2408 9.96065 2.11503 1.67332 -0.449969
200 1 14.7843 14.8474 11.6079 1.49797 -0.0736245 -0.140717
201 1 16.4597 0.0118457 13.1581 -2.45684 0.50807 1.04195
202 1 1.70352 1.71439 14.7356 0.440459 -1.5881 2.90623
203 1 3.35554 0.0989225 13.127 -0.636547 0.205096 1.90848
204 1 4.98558 1.6251 14.8155 -0.767571 -1.00441 -1.57683
205 1 6.7584 16.4784 13.2902 -1.73547 -0.941093 0.387028
206 1 8.25416 1.60469 14.9967 1.18079 -0.389138 1.64394
207 1 9.91647 0.00848507 13.4552 -1.32429 -1.94814 -1.14863
208 1 11.7033 1.64998 14.9629 0.331523 1.64462 0.541393
209 1 13.1893 16.4645 13.3103 1.75504 -3.41942 -0.509447
210 1 15.0133 1.53632 14.8783 -1.66124 1.3671 1.21156
211 1 16.5066 3.29812 13.1 -0.993632 1.06654 0.424778
212 1 1.74267 4.94314 14.6741 -1.68181 0.614559 0.248973
213 1 3.43181 3.29638 13.1085 1.39395 0.795257 -1.83138
214 1 4.97653 5.04338 14.812 2.2315 -0.20079 -0.0820892
215 1 6.70526 3.2113 13.1089 0.117821 0.258537 -0.28258
216 1 8.24223 4.94702 14.7464 -1.45288 0.876825 0.352391
217 1 9.97144 3.20958 13.2101 -0.149637 -1.73404 1.86743
218 1 11.4792 4.87799 14.7866 -0.338348 1.51921 1.48211
219 1 13.2612 3.37251 13.1596 2.23791 1.60098 1.84853
220 1 14.9197 4.909 14.8435 -0.556015 -0.518604 -0.925074
221 1 0.0307539 6.65412 13.172 -0.911379 0.409994 0.393405
222 1 1.6946 8.34122 14.8141 1.77087 1.34617 0.47033
223 1 3.38184 6.64555 13.1482 -1.70689 -0.449975 1.01398
224 1 5.06738 8.37882 14.7581 -0.597003 0.0909898 -0.337105
225 1 6.63348 6.74748 13.1443 1.94349 1.10719 -0.020564
226 1 8.33925 8.31124 14.78 1.04249 0.250663 -1.74422
227 1 9.87904 6.57746 13.1592 -0.923373 1.15622 -2.64897
228 1 11.5178 8.13718 14.7525 0.804066 -1.94031 -2.20833
229 1 13.1964 6.59758 13.1608 -0.453853 1.50111 -0.957649
230 1 14.9405 8.26402 14.9034 -0.562251 -0.739481 2.88207
231 1 16.4721 9.91897 13.2369 -0.115782 1.16837 1.23865
232 1 1.62078 11.5874 14.7392 0.0579855 -0.192841 -0.109499
233 1 3.40406 9.84687 13.0453 0.586209 -0.555534 -2.10946
234 1 4.90909 11.587 14.7168 -0.812188 1.1672 -1.13475
235 1 6.78392 9.92841 13.0374 1.43644 -1.22522 0.110318
236 1 8.30111 11.6059 14.7716 -1.37865 -2.24005 -0.638079
237 1 9.99573 10.0643 12.9973 0.313659 -0.539042 0.292927
238 1 11.5578 11.6434 14.7635 2.42465 0.231482 1.13329
239 1 13.227 9.80063 13.1651 -0.3173 -1.15112 0.298703
240 1 14.7613 11.6041 14.7534 0.609891 0.803703 0.712943
241 1 16.3809 13.2199 13.2445 1.49675 -1.02121 1.46396
242 1 1.64418 14.8682 14.8628 1.22202 -0.0650546 0.367771
243 1 3.35761 13.4199 13.1072 1.72488 0.333906 -0.0303806
244 1 5.04043 14.8854 14.9209 -0.346975 2.15795 1.05142
245 1 6.58419 13.2033 13.2552 0.765829 1.23467 -1.23164
246 1 8.23027 14.7692 15.0054 1.01299 -1.0686 -0.289304
247 1 9.86643 13.258 13.1612 -0.860331 2.11838 -0.137195
248 1 11.5403 14.8823 15.0664 1.33822 1.41571 0.0454446
249 1 13.0798 13.2708 13.0971 1.33935 1.29508 -0.196644
250 1 14.8672 14.8794 14.9114 -0.434812 0.530823 1.20243
