ITEM: TIMESTEP
670
ITEM: NUMBER OF ATOMS
250
ITEM: BOX BOUNDS pp pp pp
0.0000000000000000e+00 1.6520000000000000e+01
0.0000000000000000e+00 1.6520000000000000e+01
0.0000000000000000e+00 1.6520000000000000e+01
ITEM: ATOMS id type x y z vx vy vz
1 1 0.0661313 16.4556 0.0743767 -0.72079 -0.228997 0.770774
2 1 1.62182 1.59032 1.74964 1.33112 -0.864219 0.184344
3 1 3.1852 0.054869 0.0432397 -2.61481 -1.52911 1.43725
4 1 4.90595 1.63068 1.62865 -1.27111 -1.12666 -0.251882
5 1 6.5567 16.4627 0.104707 0.109491 2.08473 -1.8563
6 1 8.09036 1.51865 1.72932 -0.360726 -0.308817 -0.972284
7 1 9.83033 16.4741 0.0789661 0.135167 1.20302 0.818295
8 1 11.5858 1.45221 1.9029 -0.0963999 -0.849179 -0.560286
9 1 13.3463 16.512 0.0536878 -0.056737 1.71789 -0.275333
10 1 14.9486 1.67227 1.74659 0.347414 0.964209 -0.753433
11 1 16.5157 3.3594 16.4941 -0.740324 -2.60254 -0.532763
12 1 1.57257 5.06583 1.66874 -1.00286 -0.602772 -0.821435
13 1 3.29423 3.35822 16.4666 1.6781 0.595254 -1.24133
14 1 4.88583 4.84232 1.60807 0.830988 -0.624086 0.938147
15 1 6.59498 3.28562 0.0006507 0.390783 0.364857 -1.78721
16 1 8.14802 4.96066 1.74804 3.35985 -0.615319 0.16189
17 1 9.99494 3.23505 0.0956481 -0.0185079 -0.411705 -0.294688
18 1 11.3955 4.9832 1.70271 -0.16068 0.517656 -0.335608
19 1 13.1682 3.26535 0.17577 -0.2637 -1.88198 0.370774
20 1 14.8398 4.93682 1.75817 1.5861 -0.646342 -0.151127
21 1 16.4663 6.56945 16.4803 -0.833847 0.308768 -1.24504
22 1 1.5415 8.21365 1.68802 -1.65741 -1.39022 -0.150747
23 1 3.32976 6.61582 16.5084 1.26408 -0.913126 1.68815
24 1 4.94944 8.3822 1.4954 0.486832 -0.45699 0.189764
25 1 6.59432 6.62045 16.4348 -2.41416 0.289214 -1.109
26 1 8.22504 8.18505 1.57711 1.51961 -0.575617 -0.870683
27 1 9.84634 6.53931 16.3663 0.727415 -0.59415 1.16589
28 1 11.5725 8.25737 1.5944 0.748001 1.54226 -0.634618
29 1 13.2422 6.5555 16.4889 1.52499 0.464186 0.112463
30 1 14.7604 8.22784 1.58435 0.223223 -0.330058 -0.605216
31 1 16.5087 9.88863 16.5025 -1.18778 -0.317992 0.187649
32 1 1.59796 11.5027 1.57217 -1.45558 0.697869 -1.37862
33 1 3.20672 9.94915 16.3864 -0.290752 -0.733533 0.337636
34 1 4.98545 11.4281 1.49797 0.310419 0.0521139 -0.732338
35 1 6.67565 9.87486 16.3358 -1.16428 0.0293718 2.11147
36 1 8.1828 11.4842 1.63082 0.850995 -1.35925 1.29387
37 1 9.99554 9.79758 16.4046 -1.68872 -0.139341 0.560201
38 1 11.5405 11.4455 1.54728 0.0382952 0.950315 -0.841395
39 1 13.1924 9.83023 16.5009 -1.64116 -0.412192 3.48615
40 1 14.7905 11.52 1.78289 -0.718592 -1.31628 -1.34585
41 1 16.4488 13.1777 0.0208693 0.444548 -1.02876 -2.46033
42 1 1.64043 14.7758 1.6451 0.470137 1.5246 1.42205
43 1 3.26638 13.1116 16.4056 -0.639842 0.248751 -1.58364
44 1 4.91852 14.7497 1.72965 0.378412 0.748001 0.358054
45 1 6.64752 13.1543 0.00604495 0.114369 2.46092 -0.121387
46 1 8.1396 14.7836 1.7625 0.537546 -0.680308 -2.2702
47 1 9.86866 13.1613 0.0298973 0.919865 -0.0978394 -1.47576
48 1 11.6148 14.9002 1.60621 -0.0449607 -1.134 -0.146618
49 1 13.2219 13.1724 0.0586524 -1.42774 -0.835905 0.0217589
50 1 14.9388 14.9433 1.74609 1.30982 0.836964 0.0142935
51 1 0.0977202 16.2898 3.36701 0.265491 0.815635 0.0150823
52 1 1.72198 1.5984 5.12008 0.637643 -1.74287 -0.847136
53 1 3.30686 16.4502 3.31955 -1.16536 0.960263 -0.536167
54 1 4.9089 1.56231 5.03154 -1.45652 1.01613 -0.0599913
55 1 6.4717 16.3999 3.44857 0.836797 0.540537 -0.514015
56 1 8.2627 1.51269 5.03977 -1.77954 0.987508 0.628222
57 1 9.76936 16.3311 3.42435 0.150283 0.442584 -0.337831
58 1 11.5 1.59738 5.07341 0.327965 0.300369 -0.847387
59 1 13.241 16.4584 3.36247 -0.765458 -0.672375 0.177143
60 1 14.8991 1.65071 5.01273 -0.481025 -1.57863 -0.749393
61 1 0.00415021 3.38765 3.39818 -0.966296 1.65359 -0.205083
62 1 1.61735 4.94722 4.96008 1.08247 -1.76959 -0.967806
63 1 3.30694 3.25004 3.33331 0.467352 1.79809 -0.808754
64 1 5.00154 4.97747 4.78573 1.9023 -1.06874 0.729925
65 1 6.48113 3.20749 3.33983 -1.60938 -0.75116 -0.897347
66 1 8.23168 4.96773 4.87557 2.27702 0.545522 1.23884
67 1 9.9054 3.22051 3.38719 1.29938 -0.764362 0.527233
68 1 11.4408 4.85977 4.8323 1.89644 0.357226 1.12374
69 1 13.1097 3.24097 3.39141 -0.140802 1.65669 2.2069
70 1 14.7469 4.88515 4.93892 -0.0269748 0.233659 0.0641967
71 1 16.4923 6.55947 3.33198 -0.593551 0.111852 -2.60369
72 1 1.62027 8.30467 4.96435 -0.725031 0.473352 -2.61505
73 1 3.29807 6.64313 3.30916 -0.233101 -2.03907 0.891853
74 1 4.91136 8.32183 5.06601 -2.15041 0.0840949 -0.515835
75 1 6.47608 6.56689 3.27176 2.709 -1.41254 -1.62742
76 1 8.22467 8.26977 4.97754 -0.706217 -1.81854 0.253475
77 1 9.84154 6.5915 3.33482 -0.0857094 -3.15078 0.486042
78 1 11.5941 8.36442 4.9312 -0.444393 -2.99498 0.620482
79 1 13.1445 6.69742 3.29758 1.09648 -0.734086 1.45368
80 1 14.8396 8.19109 5.07368 -0.579816 2.36551 -0.887635
81 1 16.4891 9.86737 3.35966 -3.01998 -2.16704 -1.15942
82 1 1.61243 11.3937 4.96193 -1.08602 0.576389 0.475816
83 1 3.24724 9.99227 3.19478 -0.492573 -0.81244 0.38338
84 1 4.83741 11.4803 4.91103 -0.185123 0.326202 -0.656946
85 1 6.47337 9.80038 3.22528 -0.929194 0.00221966 0.0035723
86 1 8.17089 11.596 4.86494 -1.35078 -0.74735 -0.352125
87 1 9.80426 9.92108 3.28084 0.618969 -0.783991 -2.18279
88 1 11.5482 11.5748 4.95705 0.327042 1.69315 0.720644
89 1 13.3285 9.854 3.24039 -0.247345 0.411036 -1.86088
90 1 14.9503 11.4631 4.9915 -2.22906 0.724587 0.0590094
91 1 16.5104 13.2269 3.47728 0.660106 -1.15737 -1.67
92 1 1.68795 14.8783 5.11314 -0.401075 1.25086 -0.90518
93 1 3.16513 13.1166 3.18286 0.0888144 1.76147 -1.7336
94 1 4.81338 14.6199 5.00414 -1.25182 0.706754 -0.752123
95 1 6.41156 13.1192 3.28515 1.55083 0.940909 0.176971
96 1 8.20477 14.7406 4.93313 0.722442 -0.172197 -1.31344
97 1 9.8704 13.1042 3.28715 -1.10941 -0.963714 -0.481628
98 1 11.6401 14.8368 5.12687 0.594946 -0.196381 0.21178
99 1 13.1987 13.1409 3.48086 -0.418073 -0.624668 -1.36397
100 1 14.8868 14.9831 5.09083 0.719375 0.166076 -0.8348
101 1 0.0309312 0.0146231 6.63439 0.205992 -0.023768 -1.58259
102 1 1.73091 1.81455 8.3191 0.576907 -0.228561 -2.54173
103 1 3.39613 16.5006 6.70307 -1.2726 -0.160248 -0.0857775
104 1 5.06293 1.74574 8.19347 -0.866559 -0.275357 1.01268
105 1 6.52357 16.4676 6.66362 1.18978 3.23977 -0.536833
106 1 8.2355 1.64567 8.28286 -1.72473 -0.78615 1.72668
107 1 9.89275 16.3974 6.71156 -0.566076 2.52491 -2.17143
108 1 11.6091 1.64322 8.24893 -1.30201 0.412703 0.25757
109 1 13.2491 0.039823 6.73974 -0.895391 0.503827 -0.131085
110 1 14.7551 1.83992 8.36135 -0.819551 0.226976 1.88833
111 1 0.0531968 3.35362 6.72678 1.83089 -0.821407 -1.94928
112 1 1.77493 5.00673 8.33075 -1.71363 -0.0830016 0.438611
113 1 3.43357 3.2387 6.51809 -0.405158 0.256035 0.597807
114 1 5.01423 4.9615 8.17408 1.19873 -0.151446 -0.909907
115 1 6.6686 3.45066 6.60087 -2.30117 -0.592637 -0.970471
116 1 8.32988 4.90697 8.19664 -1.02787 -0.559062 -2.34012
117 1 9.87043 3.27393 6.53402 0.76237 -0.982302 -0.827682
118 1 11.4997 4.91164 8.31464 0.8776 0.386459 -1.38678
119 1 13.0722 3.27626 6.65492 2.00075 1.07965 -0.00342011
120 1 14.8342 4.98048 8.40343 0.731945 -0.0685876 1.27875
121 1 0.0149793 6.52071 6.60665 1.11816 0.735336 -2.70626
122 1 1.57016 8.2936 8.30273 -1.84285 -1.45359 -1.26324
123 1 3.32402 6.63003 6.56307 -0.870181 -1.73565 0.184224
124 1 5.04629 8.38789 8.16892 -0.67661 0.0508105 -0.785945
125 1 6.58733 6.63695 6.53826 0.602811 0.689226 -4.33987
126 1 8.44515 8.33975 8.12391 -0.132266 -2.06728 0.116333
127 1 9.95523 6.71777 6.44642 -0.59109 0.853901 2.35625
128 1 11.4996 8.38787 8.21542 -0.377054 -2.45924 -0.987309
129 1 13.0075 6.42916 6.62318 0.0655793 0.240801 -3.07364
130 1 14.8525 8.26158 8.2061 -1.6254 0.517657 -0.642842
131 1 0.0336679 9.8977 6.7046 -2.15806 0.134661 -1.34294
132 1 1.63597 11.5397 8.3192 0.897972 -0.728135 -1.45968
133 1 3.34642 9.97703 6.58245 0.330215 0.235427 -1.15768
134 1 4.80894 11.6273 8.2433 0.981543 -1.12791 -1.27762
135 1 6.59309 10.0121 6.58195 0.160866 -0.126398 -1.7475
136 1 8.1549 11.8283 8.32427 1.12786 -0.526619 2.6737
137 1 9.86367 10.0426 6.56715 -1.15112 -2.07916 -1.32009
138 1 11.489 11.608 8.26053 2.41611 -1.45016 0.213247
139 1 13.2521 10.0149 6.64411 -0.49385 0.579369 0.514387
140 1 14.9927 11.5604 8.29545 1.12756 0.437523 1.16359
141 1 16.4736 13.3296 6.7452 -0.707807 -0.0884061 -0.471744
142 1 1.66613 14.9907 8.53787 -0.503111 0.568192 -0.898614
143 1 3.24192 13.1193 6.72788 0.686928 1.80689 0.456703
144 1 4.96922 14.8632 8.16292 -0.399272 0.778931 -1.46535
145 1 6.45324 13.0909 6.59737 0.907808 1.18377 0.149155
146 1 8.27622 14.6746 8.33148 -0.403064 -0.0796664 3.78507
147 1 9.97914 13.1697 6.55996 -1.22283 0.977125 2.13271
148 1 11.6173 14.8263 8.25072 0.710203 -0.433026 0.263045
149 1 13.1199 13.0986 6.69523 -1.24416 0.39481 1.53289
150 1 14.8051 14.9085 8.38179 -0.862411 -0.240682 0.0330716
151 1 16.4943 16.5106 10.0127 0.487783 1.03357 1.25682
152 1 1.74654 1.7898 11.5641 0.169999 1.54564 1.46955
153 1 3.45262 0.18512 9.93992 0.772059 0.957342 3.60462
154 1 5.1141 1.68559 11.5591 -1.46577 1.31465 0.354544
155 1 6.69528 0.0406995 9.76438 0.399211 1.44813 0.504879
156 1 8.34032 1.63118 11.5017 0.541691 -1.34161 -0.479049
157 1 10.0319 16.5094 9.81389 -1.23828 2.18161 1.01483
158 1 11.627 1.50933 11.6309 0.737983 -0.4115 -0.573027
159 1 13.1548 16.4542 9.96705 -1.47797 -0.428733 2.54721
160 1 14.8842 1.62619 11.5849 0.562303 0.345084 2.07885
161 1 0.0810906 3.3598 9.90994 -0.479696 -0.587597 -2.98608
162 1 1.87203 4.94603 11.4913 -1.03398 1.03185 0.853883
163 1 3.35455 3.29453 9.94424 1.65608 -0.29306 -0.79989
164 1 5.11645 5.04238 11.4755 -2.44716 -0.191888 0.318015
165 1 6.62969 3.3071 9.87636 1.55702 -0.139848 2.28419
166 1 8.26298 5.05557 11.4929 -0.845064 0.371411 -1.38477
167 1 9.99499 3.41223 9.97489 0.319153 1.23461 -0.0274074
168 1 11.5753 4.98591 11.6565 1.04826 1.54942 -0.236798
169 1 13.2823 3.29643 10.0709 0.556831 -0.113115 1.69095
170 1 14.9476 5.09217 11.5275 1.06018 -2.26496 -0.58187
171 1 16.465 6.61514 9.8889 -0.38934 1.2311 -0.08702
172 1 1.74506 8.3114 11.5544 -2.58779 0.965432 1.31678
173 1 3.36615 6.66262 9.80168 1.28399 1.08084 1.01704
174 1 5.08859 8.17154 11.3585 -0.379531 -0.600681 -0.00750122
175 1 6.75605 6.67881 9.67306 2.70095 -0.711145 1.03529
176 1 8.37751 8.39964 11.37 -0.687057 -2.83992 1.15132
177 1 9.95114 6.71902 9.885 1.64638 0.560768 1.55387
178 1 11.5579 8.30932 11.4283 -2.31103 0.514962 0.938539
179 1 13.1565 6.56973 9.75786 -0.226436 -1.14619 1.37576
180 1 14.8921 8.25461 11.4617 -0.576704 0.264854 -1.36446
181 1 0.0436425 9.98734 9.86636 2.28648 0.267939 -0.950073
182 1 1.65678 11.6732 11.5624 0.534373 2.05402 -1.36176
183 1 3.24031 9.9986 9.79412 1.73118 2.47228 -1.12377
184 1 4.95122 11.6482 11.5712 0.740139 -0.916276 2.0947
185 1 6.623 10.0537 9.83749 -1.14737 0.33699 1.3876
186 1 8.2721 11.7349 11.5121 1.03004 -0.521987 0.241002
187 1 9.92336 10.0165 9.79671 -1.18468 -1.70546 -0.381155
188 1 11.6155 11.5157 11.4967 1.1075 1.20849 0.539081
189 1 13.2228 9.89103 9.7443 -1.56837 2.11916 0.603049
190 1 14.8379 11.5531 11.5978 -0.364066 0.354568 0.305092
191 1 16.4758 13.2532 9.94249 2.01424 -2.20825 -1.02779
192 1 1.70999 15.0154 11.6593 -0.579985 -3.52692 1.12522
193 1 3.36631 13.4227 9.95331 2.25387 1.16551 0.329623
194 1 4.99342 14.9532 11.5992 -0.149687 -1.90056 0.188877
195 1 6.45463 13.2491 9.8924 -0.283842 -0.355702 0.391682
196 1 8.23954 14.8622 11.5848 -0.410334 1.19145 -2.25353
197 1 10.0435 13.3472 10.042 2.71896 0.39691 -1.40917
198 1 11.4434 14.9527 11.6694 -0.397434 1.70088 1.06417
199 1 13.2738 13.2903 9.92519 1.44615 0.132811 -0.691883
200 1 14.8705 14.8684 11.6017 2.05738 0.693107 -0.105978
201 1 16.3903 0.0301827 13.2314 -0.0942513 0.270714 1.97685
202 1 1.70112 1.63936 14.8971 -0.664415 -1.15291 3.34019
203 1 3.33285 0.0960312 13.2484 -0.441358 -0.396428 2.65495
204 1 4.96699 1.60522 14.7789 0.0402013 0.33108 0.283768
205 1 6.65662 16.4602 13.2979 -2.13864 0.261942 -0.145075
206 1 8.30373 1.60772 15.0529 0.73263 0.452773 0.348445
207 1 9.86479 16.4445 13.3554 -0.770397 -1.14598 -2.66849
208 1 11.6845 1.71095 14.9875 -1.09421 0.587798 0.274309
209 1 13.2672 16.3478 13.2796 1.22625 -1.00083 -0.626717
210 1 14.8957 1.65941 14.949 -2.83871 3.30523 1.49688
211 1 16.4782 3.35378 13.1516 0.00210254 1.02324 1.58689
212 1 1.65063 4.97846 14.7341 -1.82247 0.706367 2.17354
213 1 3.49053 3.34593 13.0627 0.793577 1.22679 0.303912
214 1 5.08045 5.0044 14.8057 1.66294 -1.29365 -0.23336
215 1 6.70381 3.26296 13.1465 -0.0394453 1.66688 1.65062
216 1 8.17753 4.96399 14.792 -0.872745 -0.173018 1.3945
217 1 9.94191 3.14907 13.3051 -0.853244 -0.523603 1.73535
218 1 11.4992 4.95139 14.8849 1.113 1.28299 2.18425
219 1 13.3485 3.39999 13.2668 0.879085 -0.532657 2.19386
220 1 14.8832 4.91251 14.8161 -0.814238 0.832048 0.0430391
221 1 0.00666092 6.66992 13.1987 -0.102116 0.324931 0.574227
222 1 1.75351 8.36034 14.8202 0.411577 -0.709447 -0.250045
223 1 3.3195 6.6255 13.1901 -0.699045 -0.309937 0.622998
224 1 5.00636 8.34509 14.7432 -1.73362 -1.39449 -0.252022
225 1 6.7358 6.75925 13.135 1.84311 -0.68862 -0.400677
226 1 8.38232 8.31121 14.6901 0.585781 -0.262425 -1.51051
227 1 9.85036 6.64923 13.0275 -0.115703 1.50231 -2.28536
228 1 11.5706 8.09285 14.6782 1.10388 0.243414 -0.508632
229 1 13.1937 6.66097 13.1296 0.586881 0.861483 -0.438078
230 1 14.8932 8.21072 14.9954 -1.34137 -1.11428 0.502317
231 1 16.4846 9.96041 13.2673 0.539664 0.386506 -0.103504
232 1 1.63267 11.5878 14.758 0.450935 0.0833117 0.843654
233 1 3.41713 9.862 12.9873 -0.0591829 1.13101 -0.144792
234 1 4.88905 11.6241 14.682 0.202131 0.221022 -0.150803
235 1 6.7819 9.89119 13.0608 -1.59003 -0.231171 0.714451
236 1 8.25509 11.4966 14.7599 -0.392128 -1.86776 0.190415
237 1 9.98959 9.98693 13.0767 -0.427751 -2.24942 2.71493
238 1 11.664 11.626 14.8396 1.66934 -0.951334 1.70328
239 1 13.2116 9.78585 13.1821 -0.166223 0.634196 0.365218
240 1 14.804 11.6217 14.8307 1.0435 -0.240268 2.33779
241 1 16.4977 13.2015 13.2922 2.97498 0.325979 0.356024
242 1 1.70083 14.8718 14.8759 0.897232 0.22634 0.186646
243 1 3.40406 13.3837 13.1452 0.0563567 -1.76913 1.58413
244 1 4.98487 14.9669 14.9568 -1.80192 0.945355 0.432287
245 1 6.61716 13.2765 13.1848 0.567978 1.55392 -1.33969
246 1 8.27915 14.7544 14.9741 0.810381 0.596031 -0.963998
247 1 9.861 13.3329 13.2078 0.696986 0.589574 1.94098
248 1 11.6056 14.9241 15.0228 1.13881 0.29586 -1.70851
249 1 13.1726 13.2981 13.1464 2.26885 -0.216282 2.03954
250 1 14.8598 14.8837 14.9609 0.266538 -0.424839 0.792324
