ITEM: TIMESTEP
500
ITEM: NUMBER OF ATOMS
250
ITEM: BOX BOUNDS pp pp pp
0.0000000000000000e+00 1.6520000000000000e+01
0.0000000000000000e+00 1.6520000000000000e+01
0.0000000000000000e+00 1.6520000000000000e+01
ITEM: ATOMS id type x y z vx vy vz
1 1 16.5028 0.117562 0.166735 -0.901541 0.0147223 -0.85559
2 1 1.73943 1.74687 1.67345 -0.0535671 -1.2042 0.282308
3 1 3.33711 0.0777315 16.5159 0.201669 0.0613195 1.09808
4 1 4.93477 1.61162 1.6789 -0.353704 1.13208 2.70092
5 1 6.48483 0.0314484 0.0715177 -0.156934 -0.13198 0.438031
6 1 8.3132 1.5971 1.68825 -0.720551 -0.692663 0.882626
7 1 9.89181 16.4383 0.114169 0.076489 -0.340209 0.0241187
8 1 11.5777 1.59347 1.70701 0.924764 -0.938438 2.51871
9 1 13.266 16.4624 0.167175 0.31431 -2.39903 0.338819
10 1 14.9344 1.75717 1.87684 0.946888 -0.285469 0.833967
11 1 16.5102 3.3161 0.140626 -0.809192 -0.166324 0.34032
12 1 1.75445 4.85654 1.62305 -0.376419 -0.541457 0.705354
13 1 3.41786 3.37124 16.3829 -1.19623 2.56022 0.882018
14 1 4.93831 4.94301 1.50759 2.00582 0.87524 0.0725585
15 1 6.73806 3.22831 0.00102191 -0.870771 0.246786 -2.28518
16 1 8.30495 4.94568 1.66187 -0.970412 -0.371114 -1.14143
17 1 9.89254 3.37384 0.0479032 1.43794 -0.5558 -0.0232799
18 1 11.5193 4.98566 1.66968 0.599854 0.592897 0.748886
19 1 13.1454 3.32035 0.139271 -1.09243 0.546799 2.97185
20 1 14.7564 4.98032 1.71348 0.405222 -0.858134 -2.82624
21 1 0.0502667 6.50045 16.4808 -0.182377 0.593135 1.07936
22 1 1.67839 8.29233 1.42165 -0.466659 0.137015 -1.26547
23 1 3.28577 6.53761 16.3787 -0.893857 -0.450868 -1.08048
24 1 4.82554 8.22506 1.54583 0.548141 1.05576 0.871904
25 1 6.64681 6.70348 16.4498 0.651229 0.369806 -1.65172
26 1 8.15477 8.23164 1.70644 -0.0976904 -0.69522 -1.69344
27 1 9.91547 6.66269 0.157291 -1.44575 -1.14916 -0.957634
28 1 11.6091 8.2329 1.59843 -0.13992 -0.940131 -0.259418
29 1 13.1215 6.47841 16.4786 -0.380948 0.226908 -1.26208
30 1 15.0088 8.0362 1.50363 -1.19714 -0.649826 -0.884568
31 1 16.5197 9.81491 16.4106 -0.652657 -1.31453 -0.440557
32 1 1.51042 11.5514 1.67828 -0.693647 -1.00033 -0.813137
33 1 3.24982 9.8434 16.4264 -0.829445 1.95709 -0.920626
34 1 4.81056 11.5868 1.56677 1.28612 1.17376 -1.29734
35 1 6.50838 9.93242 16.4759 0.628488 -1.18417 -0.195025
36 1 8.23064 11.4816 1.58343 0.35487 -1.60082 -2.02315
37 1 9.91143 9.82903 16.5085 -1.18671 -1.69173 -2.12323
38 1 11.6118 11.5642 1.5154 -0.880077 -0.718305 0.506919
39 1 13.3199 9.80848 16.4335 -0.880756 -0.588233 1.79334
40 1 14.9606 11.4754 1.59436 0.242103 0.896274 1.75097
41 1 16.3618 13.162 16.4714 -0.672827 -0.861789 -1.45174
42 1 1.57312 14.8138 1.6826 0.129314 -0.287283 -0.28246
43 1 3.24279 13.2297 16.4377 0.484965 -1.12218 -0.851307
44 1 4.68936 14.8041 1.66336 -0.0151969 -0.704431 1.05496
45 1 6.4118 13.1764 16.4674 2.54024 1.09595 -0.681345
46 1 8.14421 14.9489 1.61259 1.47101 -0.203272 -0.474722
47 1 9.83614 13.2854 0.0408972 -2.1728 -0.0381039 2.26814
48 1 11.5957 14.9022 1.77316 -0.126481 0.453079 -2.6921
49 1 13.2723 13.23 0.00394323 -0.0693054 1.46755 0.606272
50 1 14.9441 14.7846 1.76446 1.37135 0.698415 -1.8776
51 1 16.4536 0.0221211 3.43278 -0.251145 1.72572 -1.01131
52 1 1.68969 1.67621 4.95883 0.412924 1.68587 0.204037
53 1 3.24116 0.0151522 3.32583 -0.339186 -0.2027 -0.618337
54 1 5.01388 1.67658 4.94199 -1.88495 -0.221409 -0.532701
55 1 6.55921 16.4768 3.39047 -2.52259 1.70333 0.153489
56 1 8.15177 1.55883 4.90204 -0.513711 -1.1261 -1.87438
57 1 9.92626 16.3367 3.3649 1.84952 -0.786201 0.0539257
58 1 11.4806 1.63242 4.85428 -2.25586 -0.577614 0.376098
59 1 13.1282 16.3411 3.37055 0.616596 -1.33021 0.0196125
60 1 14.9671 1.65012 4.91978 0.0879424 1.17828 -0.945663
61 1 0.0746598 3.35716 3.32041 0.000522858 -0.783842 -0.485891
62 1 1.73549 5.09611 5.10898 -0.574439 0.0784451 -0.0662699
63 1 3.31347 3.37087 3.35734 -0.747705 -1.23937 -0.24237
64 1 4.92234 4.88436 4.94884 0.490604 -0.422134 -0.00528315
65 1 6.65903 3.25561 3.18844 -0.0387925 0.754468 -0.932807
66 1 8.24306 4.93774 4.79868 -1.9363 -1.28482 -2.33555
67 1 9.7772 3.25656 3.25165 -0.829498 -0.101816 1.58368
68 1 11.6779 4.98492 4.75073 -0.259328 -1.97386 0.879538
69 1 13.2539 3.2114 3.25506 -1.78679 -1.19078 0.866709
70 1 14.8723 4.97656 5.08796 -0.538741 -0.84354 0.974757
71 1 0.0287179 6.53811 3.26898 -1.36655 -0.964069 0.346171
72 1 1.68953 8.15791 4.88737 -0.52962 -1.14471 -0.946003
73 1 3.38353 6.59351 3.21591 -1.62041 -1.9473 -0.0906951
74 1 4.92592 8.32406 4.84061 1.2559 0.0337558 -2.02306
75 1 6.49579 6.58935 3.16925 -1.44056 -1.27895 -0.910571
76 1 8.13407 8.326 4.96393 0.753714 0.0486265 -0.665859
77 1 9.8569 6.81924 3.26231 0.807283 0.348591 -0.507808
78 1 11.6327 8.31925 4.877 -0.253597 2.86004 -3.65078
79 1 13.2997 6.65006 3.32973 -0.0701729 0.126422 -1.76083
80 1 14.9058 8.19669 4.99745 -2.08434 0.796276 -2.35676
81 1 0.0270168 9.72506 3.24375 1.63944 -0.809663 1.24399
82 1 1.48633 11.6225 4.98256 -0.336212 -1.94338 -0.740904
83 1 3.12515 9.85708 3.21077 -0.0846607 1.264 -0.957411
84 1 4.87166 11.5447 4.92649 -1.51016 -0.239577 0.0273271
85 1 6.45564 10.0214 3.28168 -1.70522 0.234526 -0.774501
86 1 8.27478 11.5939 4.87668 0.956877 -0.960641 -1.31871
87 1 9.9588 9.78638 3.23607 -0.706214 -1.62867 -0.246792
88 1 11.5715 11.4007 4.84119 -0.334939 -0.751046 2.91434
89 1 13.4354 9.8026 3.29357 -1.00952 0.392697 -0.0460696
90 1 14.8261 11.4887 4.99898 2.71356 -0.513901 -0.0100956
91 1 16.3782 13.0782 3.27191 -0.672038 -0.242006 0.438769
92 1 1.58184 14.7559 5.11894 -1.36583 -0.489876 0.829338
93 1 3.08412 13.2021 3.30849 1.4342 -2.99648 -0.433296
94 1 4.84592 14.818 4.89996 -1.48337 0.188332 -0.2645
95 1 6.39159 13.1682 3.25069 1.68534 0.0174882 -0.860356
96 1 8.21044 14.8532 4.97944 -0.43578 -0.889147 -1.32184
97 1 9.83375 13.1151 3.17117 0.126952 -0.139117 -0.215001
98 1 11.5333 14.783 4.86764 2.52581 -0.638491 1.45353
99 1 13.2185 13.0756 3.26282 -0.569302 0.194478 -0.110831
100 1 14.7971 14.7502 4.97044 -0.531161 0.715488 0.0796433
101 1 16.4288 0.0637926 6.78904 -3.00765 0.7714 -0.686352
102 1 1.69234 1.72767 8.46718 1.05381 1.98032 0.228165
103 1 3.40286 16.4994 6.6635 0.727085 0.00757247 0.225953
104 1 4.99757 1.76706 8.265 -0.268371 -1.75348 -1.31001
105 1 6.57852 16.4577 6.55423 0.609462 -0.0670082 -1.17482
106 1 8.29867 1.7134 8.10104 -1.33303 0.583028 -0.294505
107 1 10.0151 16.475 6.63636 -0.378073 -0.142016 0.55301
108 1 11.5755 1.7676 8.1314 2.44893 -1.00183 0.913555
109 1 13.2567 0.0711487 6.48231 -0.375441 1.77464 -1.38155
110 1 14.8965 1.82322 8.29472 -1.52651 -1.26145 -1.02583
111 1 0.0832614 3.27773 6.61402 -0.533042 -0.345649 -0.696344
112 1 1.74149 5.04441 8.33415 -0.187183 -0.0459743 -1.02981
113 1 3.33477 3.30965 6.64046 -0.760991 0.562616 -0.624896
114 1 4.95144 4.9893 8.22723 0.209817 1.14283 -1.24542
115 1 6.59228 3.46554 6.51934 0.186568 -0.285454 -0.48663
116 1 8.28155 4.8553 8.16603 0.878402 0.164604 -0.0562564
117 1 9.88559 3.3082 6.44986 -1.20391 0.426228 0.415488
118 1 11.5328 4.84335 8.10418 -0.795568 -0.9748 1.26967
119 1 13.2352 3.23598 6.46123 -0.991608 -0.270635 0.9497
120 1 14.7818 4.9153 8.3059 -0.166466 -0.831523 3.32444
121 1 0.0159205 6.60829 6.71056 -0.78453 -0.698724 1.17852
122 1 1.74475 8.25921 8.30578 -0.589224 0.680487 2.01803
123 1 3.25395 6.77543 6.66835 1.83588 1.73127 -0.19156
124 1 5.03952 8.21969 8.30268 -0.95084 0.471002 0.887118
125 1 6.58865 6.55937 6.51691 0.210151 -0.93091 -0.928607
126 1 8.41228 8.22719 8.2208 -0.568756 1.60464 -0.576541
127 1 9.98037 6.53138 6.50405 0.800516 0.792321 -1.91326
128 1 11.4835 8.22759 8.15235 -1.19996 -0.0565448 -0.795543
129 1 13.2704 6.55262 6.54875 0.926151 -0.283804 0.634379
130 1 14.8403 8.25273 8.31667 -0.275021 -1.16433 1.71514
131 1 16.424 9.84541 6.63485 0.914424 -0.893704 -0.541914
132 1 1.69947 11.5892 8.29881 -1.05156 -2.01529 0.383279
133 1 3.21225 10.0161 6.5737 -1.50912 1.01562 0.571355
134 1 5.00513 11.4677 8.30839 -1.21242 -0.773683 -2.15312
135 1 6.661 9.94974 6.56903 -1.14052 0.532925 -2.63667
136 1 8.30818 11.5907 8.27432 -0.479527 1.51297 -0.748348
137 1 9.93737 10.0131 6.53612 -1.25506 1.16005 -1.77479
138 1 11.6386 11.5272 8.30562 0.0325034 1.05615 -0.463727
139 1 13.2582 9.81642 6.64741 1.04339 -0.142679 -0.233318
140 1 14.8451 11.6187 8.32498 2.16014 -0.254232 -0.622579
141 1 16.4854 13.3161 6.7965 1.44835 0.708875 2.87486
142 1 1.64831 15.0776 8.31147 -0.58616 0.77969 -0.550368
143 1 3.18267 13.1928 6.66077 0.57105 -0.36323 0.447332
144 1 4.86503 14.8758 8.27705 -0.915311 -1.09667 0.932279
145 1 6.5513 13.2023 6.53331 0.58251 -0.0605874 -0.650181
146 1 8.27954 14.8284 8.16356 1.40401 0.133973 -1.38261
147 1 9.87037 13.2363 6.63351 0.947419 0.462332 -0.78266
148 1 11.6367 14.8671 8.24422 1.23038 1.17744 0.360716
149 1 13.1379 13.1153 6.60107 -0.0148506 1.95013 -1.38713
150 1 14.7804 14.9554 8.29694 0.231738 0.891335 2.94626
151 1 0.0145496 0.0928483 9.99083 -0.97552 1.54705 3.11809
152 1 1.74521 1.59698 11.7263 0.22544 2.99693 -1.64215
153 1 3.34173 0.0418635 9.98171 -0.240099 1.55468 1.26072
154 1 5.04351 1.53919 11.5869 -1.00082 0.782057 1.77401
155 1 6.66258 16.4836 9.81809 -1.59868 2.22759 2.11984
156 1 8.21762 1.57559 11.5842 -0.158986 0.902134 0.623233
157 1 9.94672 0.039861 9.7594 3.03757 -1.21617 -1.23415
158 1 11.5467 1.66951 11.5826 -0.161727 3.27182 3.35506
159 1 13.2674 0.179559 9.90355 -0.429156 -0.563116 1.04014
160 1 14.8803 1.65834 11.6814 -0.627295 1.30597 0.0307241
161 1 16.4866 3.24743 9.97562 1.89847 0.573839 -1.41664
162 1 1.6344 4.99265 11.6579 -0.196797 -0.79973 -0.244813
163 1 3.38868 3.37348 9.95593 0.250013 0.440567 -0.357485
164 1 5.03525 5.02531 11.608 1.12265 -1.45763 -0.784678
165 1 6.53552 3.44751 9.82272 1.42249 1.26979 0.396763
166 1 8.24225 4.972 11.5705 0.648521 -0.796626 -0.0149171
167 1 9.86654 3.34357 9.85851 2.60284 -0.4835 1.65571
168 1 11.3577 4.94401 11.5819 0.598824 -0.487779 0.967115
169 1 13.0533 3.29913 9.93846 1.75008 1.10691 -0.979858
170 1 14.7931 4.97817 11.561 2.19418 -0.253163 0.506701
171 1 0.0233775 6.6024 9.87726 0.893623 1.28253 0.331942
172 1 1.57394 8.26299 11.481 -1.71688 -0.394853 0.80355
173 1 3.31097 6.55463 9.92006 -0.212691 -2.74359 -0.946483
174 1 5.05222 8.28741 11.422 -0.424373 -1.33495 0.446026
175 1 6.70972 6.62664 9.89296 0.917302 1.54419 1.52357
176 1 8.27027 8.36691 11.5897 0.382482 -0.487999 -1.18118
177 1 9.89126 6.59102 9.86292 0.483157 0.329442 -3.06457
178 1 11.5898 8.224 11.6342 -0.761082 -1.3434 -2.53232
179 1 13.1399 6.57011 9.92934 2.71158 -0.390022 0.353997
180 1 14.8927 8.28629 11.5652 -0.950731 1.54054 1.02445
181 1 16.4229 9.94351 9.97992 -0.181037 0.907537 -0.829756
182 1 1.69612 11.5964 11.544 0.877576 -1.02159 -0.0897774
183 1 3.3686 9.93271 9.84718 -0.25422 0.547694 1.1683
184 1 4.98131 11.597 11.4984 -1.1741 0.864503 -1.09576
185 1 6.75185 9.92457 9.80945 -0.506697 -1.1773 0.814003
186 1 8.30808 11.5452 11.7469 -0.126593 0.290728 2.18645
187 1 9.99001 10.0784 10.0337 0.818715 0.973137 1.14211
188 1 11.6946 11.7302 11.6464 -0.13655 -1.08796 -0.493253
189 1 13.1537 9.83247 9.86889 0.377336 -1.8365 -2.40341
190 1 14.7476 11.5737 11.6153 0.786712 -0.197883 -0.294437
191 1 16.4553 13.312 9.9834 0.161315 0.0153745 -0.66715
192 1 1.63177 15.0356 11.6076 -0.637621 0.34724 -0.96254
193 1 3.26917 13.3227 9.93709 1.30858 0.541218 0.332892
194 1 5.00004 14.9648 11.5516 -0.00677391 1.27856 1.2623
195 1 6.73873 13.2757 9.8894 -1.03105 1.49373 -0.867589
196 1 8.27193 14.9129 11.6159 1.5986 -2.27923 1.98669
197 1 10.0132 13.1837 9.93179 0.875423 1.25229 -0.821059
198 1 11.6241 14.9594 11.582 0.409512 1.15328 0.197573
199 1 13.2034 13.3139 9.94693 -0.902544 1.61178 0.58013
200 1 14.8364 15.0267 11.6727 -1.04843 -0.119901 -0.648267
201 1 0.0590656 0.0274267 13.3153 0.151641 0.122332 0.609558
202 1 1.64581 1.85764 14.9263 0.957833 1.90256 -0.846297
203 1 3.23559 0.000728246 13.351 -0.213741 0.953115 0.904352
204 1 5.10626 1.564 14.8519 -0.936665 -2.37275 0.742446
205 1 6.71447 16.4335 13.1452 2.3222 -0.378017 -0.64865
206 1 8.35503 1.55401 14.8797 -0.0681964 -0.122865 0.362946
207 1 10.0081 16.4746 13.2338 -0.913932 -0.0211392 3.76348
208 1 11.5325 1.61704 15.0185 -1.16749 -1.57931 1.46843
209 1 13.2623 0.0773588 13.3772 0.813155 -1.15803 0.605594
210 1 14.8127 1.72025 15.0816 -0.621556 -0.868456 0.836957
211 1 16.4563 3.27397 13.2237 1.6492 -0.10598 0.52789
212 1 1.65596 4.85945 14.7474 1.72213 -0.404487 0.991617
213 1 3.38774 3.29668 13.2867 0.379274 2.76647 -1.04436
214 1 5.08539 4.93994 14.8119 0.948915 1.71741 2.32489
215 1 6.64453 3.2956 13.2256 1.69683 -0.144605 0.204508
216 1 8.22218 5.0352 14.8743 -0.670921 0.907415 -1.25908
217 1 9.83559 3.23366 13.1831 1.17544 0.444308 3.38879
218 1 11.4873 4.93893 14.8943 1.47055 0.723658 -1.53014
219 1 13.0747 3.2658 13.2473 0.793955 -0.0265032 -0.837387
220 1 14.785 4.8891 14.9068 0.900789 -0.0314708 -1.02735
221 1 16.4685 6.49625 13.1587 1.36901 -0.806929 -0.0865678
222 1 1.69701 8.14843 14.7035 -0.99072 -0.610541 0.182379
223 1 3.40902 6.60588 13.0487 1.34119 -0.550061 -1.24877
224 1 5.00596 8.24957 14.7288 -1.68595 -0.690116 -1.17314
225 1 6.76561 6.62545 13.1867 1.85615 0.0011266 1.22214
226 1 8.31795 8.45369 14.8818 -0.00503563 0.175694 -1.03525
227 1 9.91268 6.5206 13.2796 0.377707 0.830909 1.07019
228 1 11.5271 8.21878 14.9127 -0.57118 -2.37791 -0.949099
229 1 13.1327 6.52888 13.2273 1.32409 -2.2243 0.692781
230 1 14.8752 8.17544 14.7461 -0.0594862 0.360485 0.789741
231 1 16.4689 9.90408 13.0911 -0.601182 0.756379 0.875252
232 1 1.70253 11.5939 14.8921 1.2667 -0.868187 0.552222
233 1 3.36335 9.7659 13.1407 -1.37076 -0.343779 0.679256
234 1 4.99446 11.5203 14.7739 1.085 -0.436044 -0.842258
235 1 6.56002 9.99204 13.1711 0.449833 0.761564 -0.751073
236 1 8.30389 11.5403 14.8644 0.843805 -0.934549 0.80505
237 1 10.127 9.99916 13.256 -0.723212 -0.732337 0.137771
238 1 11.6761 11.6717 14.99 0.496148 0.886328 1.8743
239 1 13.2547 9.8794 13.2246 0.865861 0.116971 0.705639
240 1 14.9207 11.4346 14.8762 -0.26476 -1.81275 2.53328
241 1 0.0618898 13.3399 13.23 -0.0778421 -2.19754 0.95409
242 1 1.54644 14.9711 15.0527 -1.21313 0.844913 1.38056
243 1 3.27727 13.2747 13.2634 -0.786463 1.33264 -0.368441
244 1 5.03054 14.9005 14.9369 -0.296707 0.529906 -0.331882
245 1 6.58493 13.2693 13.2301 0.24685 0.0500335 1.97486
246 1 8.24656 14.7195 14.9574 -0.42547 -1.26347 2.69248
247 1 10.1112 13.2473 13.335 -1.27661 0.803278 -0.295388
248 1 11.5794 14.9897 14.8842 -0.691574 1.41142 -0.1786
249 1 13.3419 13.3632 13.371 0.0785584 1.83283 -0.237542
250 1 15.0173 15.0509 14.9949 -1.13806 3.83489 1.28279
