ITEM: TIMESTEP
340
ITEM: NUMBER OF ATOMS
250
ITEM: BOX BOUNDS pp pp pp
0.0000000000000000e+00 1.6520000000000000e+01
0.0000000000000000e+00 1.6520000000000000e+01
0.0000000000000000e+00 1.6520000000000000e+01
ITEM: ATOMS id type x y z vx vy vz
1 1 0.0480066 0.0976125 0.073763 -1.22846 -1.0666 -0.564159
2 1 1.71558 1.8331 1.71732 -0.283155 0.1104 1.47488
3 1 3.22134 0.0602316 16.433 0.809822 -2.19813 0.52073
4 1 4.81181 1.65313 1.68685 -0.585471 -1.09506 0.260445
5 1 6.5469 16.4632 0.0908065 -0.601079 -0.579966 -0.804091
6 1 8.11999 1.57982 1.69809 0.0358094 -0.202368 -0.089455
7 1 9.92707 16.4022 0.176043 -0.427539 -4.06791 -0.166153
8 1 11.5826 1.68531 1.67236 0.870356 -1.0469 0.794391
9 1 13.2169 0.0513148 0.119294 -0.80061 -1.52059 1.1098
10 1 14.9085 1.70159 1.74793 -0.255622 -0.847774 -0.128325
11 1 0.0319265 3.28437 0.0794689 1.08716 0.0861738 0.619236
12 1 1.84633 4.94696 1.55313 0.119707 -1.42252 0.28396
13 1 3.33922 3.30305 16.4377 2.03585 -0.820078 0.898246
14 1 4.8856 4.87978 1.59234 0.358106 0.170307 0.121125
15 1 6.56642 3.19673 0.105058 -0.611698 -1.79065 -1.59288
16 1 8.25348 5.052 1.6506 0.913098 0.790878 0.501122
17 1 9.87488 3.32659 0.121142 -0.0903809 1.06815 0.0894708
18 1 11.4876 5.02077 1.54728 1.01653 -1.28886 1.30618
19 1 13.1761 3.27354 0.114182 2.26743 -0.160245 2.15905
20 1 14.9091 4.89949 1.65068 1.4673 -1.1468 -0.528178
21 1 16.518 6.57265 16.403 -0.334847 1.11294 -2.28224
22 1 1.67123 8.18582 1.69792 -1.21397 0.614656 -0.450854
23 1 3.34243 6.62796 16.3795 -1.20768 0.798577 0.786365
24 1 4.91665 8.36519 1.54838 -1.09318 0.643128 -0.296369
25 1 6.60742 6.69489 16.4736 1.08518 1.09722 -0.489989
26 1 8.202 8.28576 1.59984 -1.31338 -0.187439 -0.34834
27 1 9.85985 6.67361 16.4928 0.937896 0.937372 0.40569
28 1 11.6449 8.2708 1.60714 -1.81324 -0.32738 -0.531801
29 1 13.2341 6.50324 0.0403896 -0.737644 1.61909 -1.25146
30 1 14.9778 8.17936 1.53365 1.14209 0.905485 -2.09405
31 1 0.0620268 9.85339 16.47 0.7682 -2.17296 -0.136621
32 1 1.53377 11.5067 1.57782 -1.84466 -1.22156 -0.180989
33 1 3.30328 9.84269 16.4297 -2.11707 0.0405967 -2.75714
34 1 4.81777 11.5782 1.6156 -2.8805 0.709158 -0.147792
35 1 6.52352 9.90696 16.3606 0.0158578 2.9127 -1.90658
36 1 8.22395 11.4577 1.61961 -0.339125 0.00304241 1.16956
37 1 9.9588 9.88159 0.00665327 -1.55498 1.49108 1.18059
38 1 11.6623 11.5034 1.59615 -0.189005 -1.12383 -0.925626
39 1 13.2751 9.87846 16.4393 1.08469 2.68212 0.376777
40 1 14.9384 11.5169 1.58826 1.89547 -0.180441 1.0431
41 1 0.0300728 13.2027 0.0338032 -0.125961 -1.00737 1.03467
42 1 1.61013 14.865 1.62423 -1.78879 0.17264 0.289658
43 1 3.24686 13.2785 0.00710791 0.340782 -0.805505 -1.08045
44 1 4.83094 14.7143 1.68765 -2.41581 -0.168737 2.25151
45 1 6.49137 13.1752 16.5036 -1.01212 0.0879288 -0.679408
46 1 8.15688 14.8293 1.74204 0.104997 -1.26924 -0.781625
47 1 9.87521 13.1795 16.4894 0.440321 1.46041 -1.6647
48 1 11.5709 14.8552 1.8535 0.657065 -1.5006 1.83331
49 1 13.3738 13.248 0.0466372 2.94328 -0.176105 -0.279018
50 1 14.838 14.8754 1.84765 -0.183726 -0.722954 0.102505
51 1 0.0568851 16.4909 3.23904 -0.653559 2.68845 -0.158438
52 1 1.67565 1.71984 5.07732 0.119073 1.27751 -0.335501
53 1 3.18792 16.4083 3.35044 0.849713 0.101214 1.64407
54 1 4.91876 1.69541 4.89094 0.467631 2.29232 0.117014
55 1 6.52692 16.412 3.3474 -0.912315 1.63392 -0.225149
56 1 8.25634 1.58301 4.94984 -2.83405 -0.7569 -0.00433601
57 1 9.83049 16.5072 3.40248 1.07678 -0.646822 -0.655474
58 1 11.5777 1.59828 4.90699 -0.459691 -1.39151 2.13663
59 1 13.1662 0.00124634 3.34659 -1.04685 0.516839 1.04397
60 1 14.9883 1.66183 4.981 -0.326139 1.46005 1.64276
61 1 0.00207133 3.37861 3.37822 0.83795 -1.29805 0.230618
62 1 1.71624 4.98466 5.04348 2.5524 -0.201806 1.05624
63 1 3.33499 3.40358 3.39759 -0.307917 -0.69069 1.93035
64 1 4.9668 4.94506 5.00766 1.2891 -0.444028 0.985742
65 1 6.60436 3.28631 3.27132 0.133968 1.0411 -0.214155
66 1 8.1527 5.00463 4.86812 -0.355698 0.40701 -0.0239374
67 1 9.80978 3.34787 3.24001 -1.67632 1.15519 1.54644
68 1 11.4695 4.9492 4.88623 0.656013 0.713 1.9399
69 1 13.1814 3.31844 3.24865 2.53744 0.946492 1.36706
70 1 14.8848 5.02076 4.9113 0.285977 -0.425971 0.705843
71 1 0.00172424 6.48954 3.28058 1.02228 -0.601006 -0.613944
72 1 1.67908 8.19225 4.92364 0.56551 -1.9748 -1.08405
73 1 3.26961 6.59456 3.19894 1.70341 -0.714095 0.87225
74 1 4.91089 8.26159 4.86467 -0.998976 2.35707 -0.499722
75 1 6.45429 6.72608 3.20664 1.93558 -2.09874 1.2819
76 1 8.21169 8.28564 4.87842 0.0845256 2.74569 -0.636923
77 1 9.85009 6.687 3.26144 0.0343781 0.116327 -1.92449
78 1 11.6256 8.22435 4.96456 -0.318717 1.66379 0.34047
79 1 13.2283 6.53326 3.26217 0.614188 2.22916 -0.0266091
80 1 14.9434 8.16891 4.94714 -2.55083 -2.34019 -1.61522
81 1 16.4681 9.86936 3.19538 0.456448 -0.617525 1.89601
82 1 1.6133 11.5064 5.11012 -1.48111 -0.21523 -0.487363
83 1 3.11462 9.87674 3.33051 -0.415872 1.46732 0.262692
84 1 4.87497 11.5734 4.9385 -0.680789 -1.00758 1.54395
85 1 6.54044 9.91693 3.22485 -0.261338 -1.08877 0.780642
86 1 8.24316 11.505 4.89108 -0.775857 -0.578903 1.55205
87 1 9.94082 9.96385 3.22283 -0.300375 -3.0292 1.38522
88 1 11.6204 11.5285 4.8335 -0.946567 -1.1473 2.50985
89 1 13.3422 9.82416 3.27054 -1.30488 0.80104 0.840174
90 1 14.9744 11.4502 4.98194 -0.643598 -1.06174 1.20157
91 1 0.0333598 13.2201 3.35328 -0.291476 -0.951309 0.231542
92 1 1.62872 14.8912 5.09192 1.46704 -0.665171 0.705322
93 1 3.03483 13.1712 3.3862 -0.453947 0.719317 2.5744
94 1 4.8128 14.6956 4.93478 -1.88032 -0.953465 0.639658
95 1 6.5192 13.0804 3.26907 0.656033 -0.769305 1.11491
96 1 8.16376 14.7938 4.94183 0.575446 -0.144267 -1.15526
97 1 9.90241 13.1635 3.29353 0.146358 -1.04956 0.47327
98 1 11.5748 14.762 4.90326 -0.361847 -1.79029 -0.0047564
99 1 13.3736 13.098 3.32847 -0.124929 0.269123 1.11524
100 1 14.9667 14.8604 4.96482 -0.998776 -0.658726 -1.17764
101 1 16.4441 0.0415318 6.71358 -1.33155 -0.177232 -0.250218
102 1 1.64193 1.58201 8.29229 -0.0797972 -3.54067 0.944792
103 1 3.35416 0.0352474 6.63972 0.0756583 -0.205262 2.51975
104 1 5.05831 1.66548 8.18509 -0.758639 0.740235 0.583163
105 1 6.61714 16.3765 6.53608 -1.59049 -0.523733 -0.105994
106 1 8.2636 1.60737 8.11812 -1.40258 -0.852661 -0.0216035
107 1 9.90061 16.4673 6.52077 -0.766983 -1.57644 -1.64441
108 1 11.51 1.65812 8.21796 -1.27052 -1.76041 -1.48293
109 1 13.1432 0.0354615 6.62479 0.242873 -0.829126 -1.41251
110 1 14.8197 1.64985 8.29871 -0.30109 1.30042 1.2254
111 1 16.5057 3.28197 6.7369 1.03268 -1.12916 0.501855
112 1 1.70086 4.99905 8.34298 0.0305911 3.33861 -0.873566
113 1 3.36389 3.38287 6.59306 2.2835 -1.91073 0.411503
114 1 5.06185 4.9764 8.32093 1.63543 -1.07731 -1.28498
115 1 6.63676 3.34283 6.61896 -1.00465 0.462455 0.449263
116 1 8.30656 5.02722 8.08996 -0.346524 0.408568 0.528228
117 1 9.92648 3.34198 6.48106 -3.01306 0.310359 1.89802
118 1 11.4466 5.0006 8.2324 0.444344 -0.83932 -1.358
119 1 13.1878 3.37217 6.50398 0.46747 -1.07817 3.44471
120 1 14.7675 4.88331 8.2647 0.389841 0.306573 0.128766
121 1 16.5197 6.56051 6.70182 0.359966 2.34646 0.201647
122 1 1.64773 8.19074 8.36442 -0.937665 1.93636 0.536964
123 1 3.3367 6.73499 6.6415 -0.62584 -0.767604 2.03115
124 1 5.00454 8.30661 8.2976 -1.11778 3.37199 0.623026
125 1 6.62769 6.69751 6.59464 1.13847 1.3542 -0.779303
126 1 8.25621 8.36613 8.22062 -0.224406 0.976051 -0.497219
127 1 9.93389 6.67808 6.48943 0.130212 0.940779 -0.258012
128 1 11.5565 8.32726 8.22196 0.641231 -0.0255005 -1.01026
129 1 13.2114 6.57388 6.60453 0.332435 0.952136 -1.62009
130 1 14.8142 8.25016 8.31656 -1.37993 0.249819 1.84106
131 1 0.00544956 9.77133 6.71734 -0.967797 0.759197 -0.876945
132 1 1.58849 11.5405 8.33844 -0.0708276 -0.541824 -0.875685
133 1 3.30055 9.80228 6.67874 -0.936065 0.186825 0.342857
134 1 4.96559 11.5938 8.27559 1.13438 -0.299546 -0.0255681
135 1 6.58034 10.0181 6.61898 -0.812055 0.787624 1.74827
136 1 8.21825 11.6094 8.23889 -0.381397 -1.00858 -0.202544
137 1 9.91 9.90573 6.48866 -0.0313484 -1.49293 -0.237276
138 1 11.5591 11.4935 8.21809 0.603565 0.313118 1.13938
139 1 13.2922 9.88908 6.60442 0.742765 0.30081 0.795399
140 1 14.7694 11.4674 8.27221 -0.532196 1.36738 0.181455
141 1 16.5016 13.3056 6.7858 1.04317 1.92194 0.00852079
142 1 1.65545 14.9595 8.32418 1.0453 -0.323682 2.70887
143 1 3.18754 13.2007 6.64781 -0.671794 -0.0646434 1.59758
144 1 5.00018 14.9221 8.26604 0.329122 0.209315 -0.206217
145 1 6.59608 13.166 6.59373 -1.28669 0.397854 -1.81913
146 1 8.26027 14.8593 8.23621 0.336883 0.136837 -1.17957
147 1 10.0426 13.0945 6.47807 -0.819015 -0.0816468 1.76304
148 1 11.5635 14.9089 8.26514 0.81816 0.536786 0.673659
149 1 13.2847 13.1342 6.61263 0.316714 -1.56351 0.944035
150 1 14.8664 14.9536 8.24295 -0.483464 -1.88513 0.803451
151 1 16.4975 0.121911 9.99838 0.040205 -1.48424 0.854047
152 1 1.60921 1.65662 11.532 0.942853 0.406118 -1.02364
153 1 3.28318 16.4983 9.84639 -1.31048 -0.126084 2.09746
154 1 5.09595 1.71548 11.6679 0.226943 -0.796224 0.28567
155 1 6.73807 16.5093 9.90359 1.45043 -1.48975 1.99821
156 1 8.37835 1.56416 11.5279 -0.347787 0.155636 0.386076
157 1 9.89359 0.00663889 9.84442 0.597961 0.124548 -0.488144
158 1 11.3939 1.69414 11.5921 -0.169984 -1.01853 -0.679885
159 1 13.1382 0.0353309 9.90831 0.0300407 -0.149377 0.0398809
160 1 14.7417 1.66952 11.651 -0.0029066 -1.13476 -1.26653
161 1 0.0446472 3.28936 9.91461 -0.423028 -0.793616 -1.5496
162 1 1.702 4.92611 11.618 0.311773 -0.790491 -1.01001
163 1 3.48174 3.34095 9.86442 1.32315 1.51786 -1.90442
164 1 5.08195 4.94281 11.4849 2.51294 -1.50341 -2.03571
165 1 6.78469 3.31688 9.76592 -0.969143 -0.254936 -0.883008
166 1 8.28371 4.86558 11.5798 1.40459 1.12266 -1.82288
167 1 9.8627 3.27653 9.77909 1.36981 1.63194 -4.42539
168 1 11.4262 4.93066 11.5726 -2.20778 0.10164 -2.89677
169 1 13.1468 3.27456 9.91251 -0.546743 -0.290795 -0.406251
170 1 14.7912 4.90535 11.5577 0.0561555 -0.882298 -0.748714
171 1 16.5023 6.53461 9.92928 0.61573 0.742528 1.27234
172 1 1.63279 8.20842 11.636 -0.579359 -0.0733465 -1.61518
173 1 3.35809 6.67132 9.87413 1.00439 0.463952 2.39662
174 1 5.05069 8.21594 11.5078 1.62666 1.82666 -0.698486
175 1 6.77595 6.68269 9.85763 1.8825 -0.347348 -1.17983
176 1 8.39216 8.37755 11.571 -0.756031 0.488352 0.426171
177 1 9.94796 6.52488 9.92341 -0.668353 -0.00143337 0.573486
178 1 11.5748 8.18942 11.635 -1.08343 -1.98727 -0.500903
179 1 13.201 6.55467 9.8468 -0.70295 0.884007 0.412054
180 1 14.8366 8.17958 11.5709 0.803622 0.972374 0.867361
181 1 0.0635475 9.86419 10.0466 -1.61505 1.97182 -0.23879
182 1 1.62288 11.5937 11.5767 1.20454 0.335562 -1.48949
183 1 3.31577 9.94878 9.96517 -0.169335 2.37315 -0.751868
184 1 4.99802 11.6731 11.5712 -0.523165 1.6464 -0.546481
185 1 6.71006 10.0909 9.93121 1.98463 0.73905 -1.34776
186 1 8.32005 11.6165 11.5227 0.720959 -0.23787 -0.498139
187 1 9.96878 10.0143 9.8201 -1.22915 0.75294 -0.319374
188 1 11.6093 11.5541 11.5553 1.81919 0.881119 -1.40258
189 1 13.2114 9.90279 9.90437 -0.971731 -0.302876 -0.507479
190 1 14.7847 11.5755 11.6479 1.12179 -1.31008 -0.988141
191 1 16.3655 13.3037 10.0077 1.88296 -0.535317 -0.256798
192 1 1.57489 14.9546 11.5981 0.969168 0.0182815 0.477824
193 1 3.20911 13.3139 9.96256 2.5341 -0.288088 -0.623147
194 1 4.97705 14.9236 11.5775 1.14641 0.316496 -1.08444
195 1 6.63405 13.2908 9.95717 1.34108 0.0144029 -0.0733362
196 1 8.42929 14.8738 11.5897 1.34996 1.41678 -1.15016
197 1 9.91786 13.2051 9.85869 -0.00231313 -0.901243 -0.804121
198 1 11.6204 14.8741 11.6838 0.0339418 0.780348 1.2844
199 1 13.3139 13.2361 9.81528 -0.459253 1.16917 0.522858
200 1 14.868 14.9503 11.6634 1.66614 0.0813054 -0.311911
201 1 0.0568941 0.124304 13.2308 -0.40671 0.372296 1.75665
202 1 1.70505 1.70376 14.9006 3.12242 0.211788 1.38765
203 1 3.33974 0.0785296 13.2133 -2.13105 -0.106919 -0.0825853
204 1 5.00645 1.57466 14.9367 -0.721401 0.258235 -2.0535
205 1 6.65485 16.509 13.2102 -0.181577 -1.62303 -0.861495
206 1 8.24781 1.61252 15.0811 -2.44609 -0.498805 -0.114268
207 1 9.97558 16.5172 13.3048 -0.616718 -0.56873 -0.93688
208 1 11.5531 1.64603 14.9486 -1.05195 -0.28001 1.50825
209 1 13.1469 0.0437867 13.2811 -3.05113 1.10728 1.57329
210 1 14.8665 1.72898 14.8897 -2.33315 -1.52838 0.695146
211 1 0.018878 3.29607 13.2932 -0.488288 1.78809 1.36179
212 1 1.67129 4.84873 14.8104 1.00641 -0.564707 -0.708254
213 1 3.47483 3.33051 13.1552 0.763932 0.938981 1.19261
214 1 5.08897 5.00314 14.7714 1.60716 1.69438 0.489142
215 1 6.68799 3.31411 13.2772 -0.0388809 1.164 -0.306067
216 1 8.27499 4.94865 14.923 -1.2021 -0.825644 -0.612832
217 1 9.91545 3.27911 13.2783 0.661078 0.443095 -0.693794
218 1 11.4791 4.93169 14.9255 -1.32745 0.396933 0.511071
219 1 13.1631 3.19503 13.2844 -2.08267 2.21246 0.180393
220 1 14.8436 4.88841 14.8314 0.00569032 -0.26972 1.09512
221 1 0.0156354 6.51658 13.1375 -1.20539 0.0319152 -1.76768
222 1 1.66945 8.24885 14.7975 1.01423 -0.380262 -3.12843
223 1 3.2927 6.62006 13.114 0.914238 -1.82484 -1.6385
224 1 4.89326 8.30445 14.7365 -0.649088 0.715001 -1.06347
225 1 6.70771 6.64384 13.1558 1.36801 -0.656699 -0.69742
226 1 8.31957 8.31267 14.7541 0.685296 0.514644 0.0863697
227 1 9.9178 6.55136 13.1951 -1.48329 -2.05867 -0.30083
228 1 11.5758 8.1894 14.8306 -0.646509 0.0685703 0.661097
229 1 13.203 6.53892 13.2311 -0.856303 -0.630093 0.0958204
230 1 14.9609 8.21156 14.8814 -1.57465 1.38447 -1.11856
231 1 16.4742 9.8534 13.1784 -1.25629 0.872978 -2.06309
232 1 1.65791 11.6619 14.833 -1.78354 -1.31076 -0.373446
233 1 3.4132 9.93334 13.0735 0.00152183 -0.130336 -2.63003
234 1 4.97072 11.6167 14.7977 -0.180901 0.115152 -1.38253
235 1 6.58837 10.0296 13.1542 -0.752232 1.29878 1.1989
236 1 8.27945 11.5591 14.7904 -0.329925 1.09226 -0.480556
237 1 10.0795 10.064 13.2866 0.623125 0.111191 -0.994001
238 1 11.513 11.6182 15.0191 1.19326 0.42844 -0.18246
239 1 13.162 9.89149 13.2081 1.5581 -0.532032 -0.139262
240 1 14.8466 11.6209 14.7829 1.07772 -1.0837 -0.156446
241 1 16.3827 13.1766 13.21 3.69774 0.363133 0.45486
242 1 1.52442 14.914 14.8177 -1.32891 0.422606 0.0681136
243 1 3.23641 13.3862 13.1965 1.07828 -0.10603 -0.074256
244 1 4.96855 14.8465 14.9076 0.0677337 -1.07903 -1.8633
245 1 6.6459 13.3145 13.2114 1.28796 1.13663 0.211879
246 1 8.22802 14.9778 14.9283 0.386449 -1.58041 -0.86943
247 1 10.0107 13.2401 13.3499 1.17071 0.351941 -0.201643
248 1 11.5666 14.8138 15.042 -0.638724 0.40474 -2.01386
249 1 13.0884 13.2335 13.2681 1.84883 2.32915 0.883357
250 1 14.9894 14.9785 14.9046 1.90601 0.131627 -0.100391
