ITEM: TIMESTEP
190
ITEM: NUMBER OF ATOMS
250
ITEM: BOX BOUNDS pp pp pp
0.0000000000000000e+00 1.6520000000000000e+01
0.0000000000000000e+00 1.6520000000000000e+01
0.0000000000000000e+00 1.6520000000000000e+01
ITEM: ATOMS id type x y z vx vy vz
1 1 0.0501886 0.0932672 0.041963 -0.44695 -0.650118 -1.7573
2 1 1.70012 1.70995 1.63569 -0.384803 -0.43557 1.16109
3 1 3.30526 0.00701362 16.4284 -0.569631 1.29 -0.400729
4 1 4.80626 1.72233 1.82338 -0.0844066 -0.176108 1.11149
5 1 6.47333 16.447 0.101182 -0.250241 1.9673 -0.0188393
6 1 8.05654 1.6086 1.66579 -1.33348 0.475467 0.32278
7 1 9.84356 0.0172158 0.175993 -0.814475 -0.757013 1.75994
8 1 11.5884 1.55145 1.78528 0.530598 0.0463007 1.54401
9 1 13.1513 16.4842 0.124545 -0.402185 1.50298 0.294365
10 1 14.81 1.65166 1.77452 0.5005 -0.672946 -0.77325
11 1 0.0489853 3.25354 16.4575 -0.200592 -0.621288 -0.787691
12 1 1.65918 4.92608 1.63975 -2.40415 -0.441722 0.553987
13 1 3.29019 3.28936 0.0777526 -0.743999 -0.31944 0.459279
14 1 4.85116 5.01484 1.64592 0.0975477 1.31365 2.52038
15 1 6.49828 3.345 0.143419 -1.13329 0.0122862 -0.808279
16 1 8.17301 5.00868 1.6527 0.407895 0.453901 1.11765
17 1 9.84946 3.33645 0.03891 0.144285 0.737229 1.45293
18 1 11.4665 4.875 1.60286 0.0741823 -0.279687 0.739099
19 1 13.2298 3.33156 0.045539 2.63439 0.00479407 1.7981
20 1 14.8648 4.95174 1.63048 0.803005 0.330116 -0.654215
21 1 0.0433743 6.70639 16.4947 0.959101 0.297724 -2.30456
22 1 1.59111 8.27213 1.58722 -1.60278 0.141343 0.0645301
23 1 3.26577 6.73262 16.457 -1.31535 1.53808 0.284939
24 1 4.88656 8.4012 1.45058 0.387529 0.934213 -1.80035
25 1 6.62113 6.69893 16.324 1.24949 -1.77417 -0.825055
26 1 8.20559 8.26743 1.55167 0.645992 -3.05306 0.451111
27 1 9.89991 6.50889 16.4034 -0.515215 -2.19038 -2.60286
28 1 11.4993 8.18428 1.59819 -1.1903 0.320107 -1.87251
29 1 13.3172 6.59655 16.5081 -0.0710849 -0.795771 -0.496449
30 1 14.8399 8.203 1.66304 0.231614 -0.417396 1.35567
31 1 16.5096 9.92865 16.4045 -0.562066 -0.00044319 0.804783
32 1 1.67761 11.5378 1.627 0.429756 -0.964871 -1.98705
33 1 3.22622 9.92844 16.4009 -0.849724 -0.64871 -1.55826
34 1 4.98117 11.552 1.54101 -0.389326 -0.768106 -2.21778
35 1 6.58184 9.90066 16.3554 0.942125 -0.0686604 -1.5333
36 1 8.29048 11.4591 1.63689 0.255786 -0.614967 -0.349989
37 1 9.9325 9.90442 16.3881 -1.0243 -3.58104 0.579731
38 1 11.6209 11.5265 1.65653 1.07726 0.969406 0.118043
39 1 13.2235 9.83692 0.0484034 0.268938 -0.437808 -0.334395
40 1 14.9829 11.4119 1.67854 0.389232 -1.71583 0.0440219
41 1 16.4849 13.2635 0.0086511 -1.41459 -0.293668 1.59115
42 1 1.69445 14.8535 1.58959 1.27747 -0.926456 -1.01751
43 1 3.30243 13.2382 0.000494581 0.316463 0.419303 -0.55799
44 1 4.93456 14.6612 1.67998 1.64575 1.41634 1.39278
45 1 6.61878 13.2572 16.4844 0.983032 -1.7099 0.397495
46 1 8.1984 14.8165 1.76485 1.11167 0.198934 -0.781442
47 1 9.89219 13.1334 0.142443 2.21733 -0.375279 -2.15282
48 1 11.7446 14.8125 1.76388 1.78111 0.088589 -0.911447
49 1 13.2613 13.1896 0.117809 0.388762 -0.056738 0.189484
50 1 14.8209 14.8754 1.71008 -0.813954 1.80531 -1.25502
51 1 16.482 16.4141 3.29867 -1.68779 -0.138031 -1.86275
52 1 1.51303 1.74116 5.07905 -1.08711 -0.111704 -1.7169
53 1 3.2623 16.4665 3.44271 -0.0158307 -1.60169 0.429846
54 1 4.79844 1.68804 4.98898 0.0536926 -0.0409761 1.04319
55 1 6.5427 16.3925 3.40179 0.229782 0.867943 -0.0598641
56 1 8.1793 1.57815 4.85951 -1.43043 -0.534552 -1.78614
57 1 9.87165 16.4486 3.35898 -0.773149 -0.937217 -0.568677
58 1 11.4737 1.69808 5.01384 -0.463164 -2.48933 1.0263
59 1 13.2329 0.069293 3.3194 1.14864 0.79161 -0.509956
60 1 14.8846 1.69245 5.04252 -0.387757 1.94035 0.61004
61 1 0.0648591 3.30556 3.33971 -0.520432 -0.452434 0.446267
62 1 1.6607 5.01523 5.01288 0.38874 -1.44101 -2.45971
63 1 3.1929 3.34238 3.46054 -1.14237 0.427821 -1.08231
64 1 4.95219 4.9809 4.977 -0.226357 -0.484507 -0.582108
65 1 6.44495 3.28707 3.2914 -0.21666 0.930101 -0.220172
66 1 8.11075 5.11291 4.88548 -0.344468 1.36695 -1.69991
67 1 9.72134 3.2285 3.2597 -0.873168 0.246913 1.15512
68 1 11.4491 4.91647 4.89336 -1.87987 0.303384 -0.814574
69 1 13.3207 3.31441 3.29466 1.45849 -0.46798 0.936118
70 1 14.7636 4.93165 4.99657 -1.95766 -0.125491 -0.833444
71 1 0.0257891 6.65816 3.34212 -0.163562 0.976776 1.41885
72 1 1.60462 8.22507 4.95173 0.429371 0.731595 1.82532
73 1 3.3867 6.62572 3.33118 0.460337 -0.656095 0.230169
74 1 4.8414 8.4065 4.88117 -1.11018 1.32873 1.59468
75 1 6.48441 6.80844 3.12249 -0.604045 0.729338 -0.282513
76 1 8.14918 8.28862 4.82791 1.75685 0.87207 -0.98452
77 1 9.82305 6.64018 3.24654 -1.41027 0.531667 -1.10811
78 1 11.5123 8.25866 4.89207 0.667554 0.242664 -0.109541
79 1 13.202 6.45707 3.27904 -0.842557 -0.489954 -0.450931
80 1 14.8107 8.18155 5.00717 1.17408 -0.95165 -0.714443
81 1 0.105965 9.8815 3.29099 1.16288 -0.0338393 -0.415261
82 1 1.74169 11.387 5.13659 0.593815 0.105454 -0.808251
83 1 3.33924 9.89245 3.32777 0.591092 0.320093 -1.45832
84 1 4.76405 11.5426 5.02983 -0.530639 -0.110654 -1.34409
85 1 6.61924 10.0007 3.21586 -0.307366 -0.353005 -0.13099
86 1 8.30305 11.5301 4.85796 0.435184 -1.37605 -0.517553
87 1 9.92177 9.9362 3.21386 -2.60131 -1.00182 -1.68527
88 1 11.6903 11.4961 4.89134 2.10938 -0.587452 0.334275
89 1 13.3422 9.89038 3.31048 -1.02454 -1.91927 0.303588
90 1 15.013 11.4553 4.99928 1.01508 2.19685 0.492523
91 1 0.272463 13.2356 3.27043 2.3323 -0.645752 -0.645028
92 1 1.66118 14.807 5.16959 0.855281 -0.292201 0.789234
93 1 3.25119 13.1945 3.35918 -0.01153 0.362637 -2.06662
94 1 4.84683 14.7444 4.98156 -2.60005 -1.5662 2.44934
95 1 6.53682 13.1405 3.3987 -1.79783 1.3921 0.864333
96 1 8.2198 14.7651 4.91225 1.38405 -1.49003 -1.41733
97 1 10.0436 13.1077 3.40996 -0.39792 1.24745 0.363797
98 1 11.7315 14.9302 4.77939 2.45156 1.00665 -0.432524
99 1 13.4918 13.0891 3.40628 1.16264 -0.408903 0.382378
100 1 14.8892 14.8603 4.9568 -0.546604 0.817191 -1.01546
101 1 16.462 0.0629362 6.74247 0.524089 2.34683 1.36806
102 1 1.54366 1.73585 8.20496 -0.639148 0.842732 -0.591758
103 1 3.32266 0.0177287 6.65356 -1.04083 0.561352 0.384131
104 1 5.09319 1.64288 8.14759 -0.375676 2.92728 -0.535781
105 1 6.53209 16.4142 6.54745 -0.723457 2.14478 0.0646893
106 1 8.32283 1.42235 8.22334 0.542976 0.357315 0.485276
107 1 9.84189 16.3899 6.51593 -0.793405 -1.19204 -2.38602
108 1 11.5915 1.55192 8.2801 0.188878 0.858258 -0.702666
109 1 13.2158 0.00412006 6.66163 -0.718056 0.952856 0.126849
110 1 14.7015 1.68832 8.16963 -0.583848 2.47053 -0.729835
111 1 16.4831 3.43326 6.68049 -0.787383 1.1469 -0.943688
112 1 1.89997 4.92556 8.26914 2.22875 1.40514 0.0509457
113 1 3.30396 3.26119 6.631 0.389172 0.359952 -2.62019
114 1 5.16531 4.98395 8.34598 1.8558 -2.8005 -2.01525
115 1 6.64058 3.3459 6.538 -0.708559 -0.453385 -1.37442
116 1 8.41783 4.98195 8.12201 0.797914 0.619999 1.0923
117 1 9.85112 3.33021 6.54388 -0.71064 -1.40637 -0.0974404
118 1 11.4581 4.99657 8.30795 -1.4631 0.496191 1.49265
119 1 13.1285 3.36727 6.58199 -2.79594 0.992609 -0.412628
120 1 14.8283 4.98567 8.31817 -0.588926 -3.01707 1.02128
121 1 16.5062 6.51914 6.68746 0.490053 -1.99135 -0.671378
122 1 1.63803 8.20521 8.41114 -1.32443 -1.34374 1.24198
123 1 3.36532 6.68947 6.63109 -1.10914 -1.58439 -1.07382
124 1 4.94771 8.30412 8.38468 -0.766737 1.66116 -0.0163992
125 1 6.51649 6.67815 6.68478 1.52202 -0.181082 -0.631129
126 1 8.26488 8.54807 8.05335 0.584849 1.19118 -0.306572
127 1 9.88054 6.72252 6.52779 0.162414 -0.564588 -2.97529
128 1 11.6349 8.35055 8.23309 2.18165 0.417527 -2.96661
129 1 13.1234 6.62635 6.67539 -0.354004 -0.683134 -1.43589
130 1 14.8641 8.21956 8.23932 -0.975997 -0.135469 -0.650515
131 1 16.4791 9.74529 6.75702 0.155542 -1.22287 -0.401498
132 1 1.59593 11.4269 8.5174 -1.89055 -0.501723 0.220741
133 1 3.2104 9.86628 6.8226 -0.357623 1.65689 0.478104
134 1 4.83942 11.5487 8.33181 -2.01682 -0.870577 0.566287
135 1 6.58401 9.99012 6.4721 -0.312671 -1.59616 0.626998
136 1 8.25907 11.6401 8.14169 -0.790002 0.736037 -0.177451
137 1 9.9209 10.0243 6.49912 0.405313 2.13469 -0.332767
138 1 11.7319 11.5871 8.22388 0.854828 -0.0301162 1.53858
139 1 13.2326 9.95543 6.62955 -2.43222 0.539244 -0.0752967
140 1 14.8701 11.5434 8.28778 -1.8746 -0.162867 0.701478
141 1 0.0561473 13.1738 6.69534 0.0408153 -2.68924 -1.00975
142 1 1.62853 14.852 8.2695 0.269356 -0.506986 2.53719
143 1 3.23133 13.1886 6.69717 1.16308 -1.34008 -0.10141
144 1 4.89178 14.824 8.34744 -0.44109 -1.5383 -0.571238
145 1 6.59453 13.1483 6.57457 0.743138 0.514606 -0.249299
146 1 8.24768 14.8117 8.20463 1.54745 0.0302639 -0.703908
147 1 10.0308 13.2009 6.3582 1.07354 1.31131 -1.01996
148 1 11.6012 14.8792 8.14029 0.326364 0.735706 0.597036
149 1 13.2935 13.1918 6.62906 0.0452258 0.367658 1.95676
150 1 14.8472 14.9438 8.28658 0.105541 -0.778131 -0.454191
151 1 16.4215 0.123329 9.84755 -1.11259 -1.00387 -2.1572
152 1 1.73833 1.68317 11.4002 -0.555468 -0.215463 -2.01351
153 1 3.32211 16.49 9.8382 0.2003 2.13908 0.338088
154 1 5.14799 1.71168 11.4778 -0.967398 0.196788 0.0818339
155 1 6.6714 16.4178 9.99072 1.38645 1.16026 -0.263858
156 1 8.45842 1.57895 11.6288 0.0361973 -1.90768 -0.444082
157 1 9.92128 16.4785 9.90826 -0.331907 -0.221163 1.70306
158 1 11.4809 1.54727 11.6175 1.92118 -2.24004 1.7127
159 1 13.1182 0.0490845 9.94686 -0.5139 -0.292488 -0.963629
160 1 14.8462 1.75705 11.4956 -0.697804 0.384379 -0.640675
161 1 16.441 3.30433 9.80074 -0.289749 1.65418 1.31478
162 1 1.93053 4.87235 11.5337 2.20815 0.91116 1.54737
163 1 3.4445 3.25948 9.90873 1.44336 -1.59801 1.04788
164 1 5.25052 4.99229 11.5078 1.72598 0.123796 0.135665
165 1 6.86097 3.28323 9.89385 0.789872 0.779437 3.87186
166 1 8.43066 4.99808 11.5178 -0.13476 1.40997 -1.60667
167 1 9.97236 3.26628 10.0163 2.72057 0.453645 2.37248
168 1 11.6709 4.95371 11.5432 1.88395 1.90266 2.1782
169 1 13.0956 3.3535 9.84582 0.194265 -0.675697 1.73171
170 1 14.9093 4.87458 11.6191 2.59867 0.612704 0.281701
171 1 0.0468681 6.44871 10.0092 1.29552 -1.22797 1.62875
172 1 1.64973 8.16812 11.5812 0.579317 0.135672 -0.504078
173 1 3.44375 6.54333 9.91091 -0.356096 -2.03811 -0.0464878
174 1 4.97053 8.31757 11.5941 0.0572657 1.06641 0.299895
175 1 6.81332 6.65332 9.87999 0.504373 -1.76009 0.234691
176 1 8.28286 8.37662 11.4638 0.667548 0.479273 -1.99764
177 1 9.99711 6.67479 9.86289 0.288305 0.141425 0.469693
178 1 11.6843 8.24525 11.5181 -0.376925 -1.20348 -0.632204
179 1 13.274 6.57309 9.88515 -1.33592 -0.997624 0.191271
180 1 14.9318 8.07908 11.5706 0.587423 0.0296357 -0.639827
181 1 16.4763 9.83108 10.2191 -0.220905 0.288907 -0.0898866
182 1 1.5862 11.6288 11.6818 -0.191021 1.42908 0.541447
183 1 3.23965 9.92678 10.0739 -0.080607 -0.234349 0.0680581
184 1 5.00344 11.6846 11.6051 0.915709 -0.414639 1.84284
185 1 6.54048 10.0836 9.82361 -0.941218 0.641554 -2.52494
186 1 8.22276 11.61 11.3753 -0.158832 -0.250138 -1.6128
187 1 9.88069 10.0133 9.75819 -1.77894 -1.1901 -0.469731
188 1 11.5895 11.5826 11.4894 -0.407553 0.831994 -0.617184
189 1 13.2416 9.92248 9.88048 0.456924 0.10998 1.00071
190 1 14.7133 11.6003 11.6262 -0.188846 -0.333448 -0.0681233
191 1 16.3849 13.3403 9.96864 0.459669 -0.256413 0.736398
192 1 1.5498 14.9725 11.4002 1.17393 0.750333 -0.669949
193 1 3.19562 13.1996 9.97681 0.310669 0.50386 1.65399
194 1 4.98526 14.9101 11.5422 0.856105 0.559534 -0.299451
195 1 6.64806 13.2297 9.83533 -0.131527 1.2071 -1.01275
196 1 8.29167 14.8477 11.6059 0.168032 -0.857717 -1.71314
197 1 9.95343 13.2086 9.84318 1.70472 -0.233883 1.38394
198 1 11.4464 14.9484 11.6468 -0.0821075 2.32061 0.655497
199 1 13.2769 13.3725 9.91199 -0.806202 0.431386 -0.175577
200 1 14.7018 15.0546 11.7111 -0.597009 0.659912 -0.135638
201 1 16.504 0.185397 13.0731 -0.143062 -0.0552555 -0.234395
202 1 1.73175 1.68778 14.7862 0.838386 0.326267 0.697133
203 1 3.35215 0.00422671 13.1147 0.0144899 1.27178 -0.346273
204 1 4.97144 1.55473 14.8847 0.117195 0.804189 0.152378
205 1 6.69228 0.00902077 13.2111 0.301031 -0.700885 0.0803356
206 1 8.13548 1.59402 15.0726 -2.12313 -0.111458 -0.133919
207 1 9.91004 16.4121 13.4992 -0.544988 -1.15175 2.67073
208 1 11.5355 1.6001 15.0013 0.752622 -1.39094 1.84877
209 1 13.0968 0.0183164 13.3877 -0.960084 -1.32324 0.932947
210 1 14.8564 1.55615 14.8715 -1.18659 0.825807 1.28844
211 1 0.0534181 3.26453 13.1801 0.751163 -1.12855 0.679779
212 1 1.75618 4.89934 14.764 0.840735 -0.770006 -0.030099
213 1 3.51718 3.2898 13.1929 1.69042 0.0295758 0.36839
214 1 4.98383 4.98069 14.7727 -1.09709 -1.19931 -0.70105
215 1 6.66235 3.2753 13.27 -0.0415152 0.38997 0.623983
216 1 8.27755 4.98692 14.7717 2.32482 0.453341 -2.30876
217 1 9.93395 3.33401 13.2285 0.885227 1.03644 0.0960433
218 1 11.6496 4.89997 14.8951 0.414552 -1.53339 0.668113
219 1 13.1578 3.22562 13.2295 0.288512 0.0747104 0.0416329
220 1 14.981 4.86468 14.8704 -0.139848 1.14673 -1.52337
221 1 0.0216211 6.46587 13.1916 -0.674589 -0.404114 0.3769
222 1 1.60525 8.26491 14.6819 -1.88948 -1.2711 0.303544
223 1 3.41299 6.57476 13.1412 1.25368 -0.877557 -0.636342
224 1 4.95612 8.34259 14.7399 0.44543 -0.45193 0.894077
225 1 6.79088 6.59873 13.1478 1.25063 0.944018 0.902255
226 1 8.24958 8.27673 14.8301 0.505826 0.461513 -0.146124
227 1 10.0029 6.62359 13.1617 -1.50332 1.03685 -1.30639
228 1 11.4407 8.19309 14.8875 -0.457314 -0.703186 1.22454
229 1 13.2842 6.64703 13.1699 0.340818 1.2785 0.500854
230 1 14.9566 8.18124 14.8411 -1.98972 -0.897622 1.26702
231 1 16.4145 9.86023 13.1291 -1.32818 -1.80581 1.53738
232 1 1.58885 11.6679 14.794 -0.849719 -0.376108 0.513304
233 1 3.36835 9.89755 13.1653 -0.806674 0.719058 0.380583
234 1 4.84316 11.7442 14.8791 -1.89179 0.791172 0.26916
235 1 6.56258 10.0422 13.1811 0.508813 -1.25887 2.5334
236 1 8.26972 11.5592 14.7901 1.53066 1.81209 1.25166
237 1 9.91441 9.93879 13.2537 -1.00362 0.40705 -0.98653
238 1 11.5451 11.62 14.9079 1.6189 -0.989459 -0.530172
239 1 13.1271 9.92387 13.1999 2.31847 -1.79653 0.364206
240 1 14.9051 11.5214 14.8395 1.05 0.23013 2.26125
241 1 16.41 13.3063 13.2091 -1.76916 1.58863 0.856506
242 1 1.60072 14.8957 14.7551 -0.0286684 0.488491 0.265685
243 1 3.30368 13.3998 13.1356 -0.406148 1.7913 0.689161
244 1 5.03721 14.9881 14.8655 0.215063 0.614342 2.41867
245 1 6.66009 13.2721 13.2001 -0.877552 0.456345 -0.364426
246 1 8.20839 14.8063 15.005 -1.11453 -0.277437 1.7353
247 1 9.94476 13.2004 13.3604 0.446937 0.642528 1.16533
248 1 11.4351 14.76 15.0836 -1.4838 1.26365 0.363364
249 1 13.1075 13.2816 13.274 -0.673601 1.07632 1.25634
250 1 14.7959 14.91 14.808 -0.361428 0.617772 0.464105
