ITEM: TIMESTEP
0
ITEM: NUMBER OF ATOMS
250
ITEM: BOX BOUNDS pp pp pp
0.0000000000000000e+00 1.6520000000000000e+01
0.0000000000000000e+00 1.6520000000000000e+01
0.0000000000000000e+00 1.6520000000000000e+01
ITEM: ATOMS id x y z vx vy vz
1 0 0 0 -1.59626 1.35314 1.81608
2 1.652 1.652 1.652 -1.84062 -1.95572 -1.7909
3 3.304 0 0 1.09594 0.351107 1.68101
4 4.956 1.652 1.652 1.16841 -0.661863 -1.21173
5 6.608 0 0 -0.909976 1.18702 1.96165
6 8.26 1.652 1.652 -1.38596 -0.637725 -1.85948
7 9.912 0 0 -0.913955 -1.3286 1.48076
8 11.564 1.652 1.652 -1.14358 1.6857 -1.03706
9 13.216 0 0 1.75766 1.76256 -0.763289
10 14.868 1.652 1.652 0.547993 0.0579398 -1.20056
11 0 3.304 0 1.67876 -0.655211 1.9549
12 1.652 4.956 1.652 1.83474 1.74287 -1.78942
13 3.304 3.304 0 1.72892 1.5682 -0.562339
14 4.956 4.956 1.652 -1.55895 0.794112 0.349954
15 6.608 3.304 0 -1.00875 -1.28692 2.01363
16 8.26 4.956 1.652 -0.748939 0.132508 0.857756
17 9.912 3.304 0 0.447213 0.00460217 -0.475807
18 11.564 4.956 1.652 0.423473 -0.693094 0.919879
19 13.216 3.304 0 -1.47736 0.135703 -1.76701
20 14.868 4.956 1.652 0.295611 -1.30208 0.685247
21 0 6.608 0 1.80659 -0.653861 0.514936
22 1.652 8.26 1.652 -0.127624 -1.61244 -1.4247
23 3.304 6.608 0 0.243648 -1.60956 -1.39457
24 4.956 8.26 1.652 -0.245604 -1.08052 -1.05199
25 6.608 6.608 0 0.327664 -1.69512 0.946559
26 8.26 8.26 1.652 0.363407 -0.402837 -0.842938
27 9.912 6.608 0 1.61002 -1.29759 -0.369036
28 11.564 8.26 1.652 0.572021 1.56547 1.94881
29 13.216 6.608 0 0.070248 0.868344 0.785849
30 14.868 8.26 1.652 -1.13558 -0.764979 -0.290963
31 0 9.912 0 1.19647 0.182435 -0.857188
32 1.652 11.564 1.652 -0.521109 -0.806578 0.587628
33 3.304 9.912 0 -1.43333 -0.196391 0.906933
34 4.956 11.564 1.652 -1.79777 -1.93145 -0.226847
35 6.608 9.912 0 0.576705 -0.169593 0.711371
36 8.26 11.564 1.652 -1.66858 0.808825 -1.80118
37 9.912 9.912 0 1.16635 0.963193 1.73915
38 11.564 11.564 1.652 0.721738 -0.64392 -1.3763
39 13.216 9.912 0 1.09077 1.93659 -0.668787
40 14.868 11.564 1.652 -0.30548 -1.62178 -1.49562
41 0 13.216 0 -0.875745 1.17889 -1.87571
42 1.652 14.868 1.652 -0.173179 1.16733 0.911552
43 3.304 13.216 0 -0.608385 0.80957 -1.35302
44 4.956 14.868 1.652 -1.88205 1.61758 0.676616
45 6.608 13.216 0 1.58083 -1.12106 1.55383
46 8.26 14.868 1.652 -0.0969343 -0.782963 -0.810161
47 9.912 13.216 0 1.30948 0.538532 1.58711
48 11.564 14.868 1.652 0.11499 0.50862 1.74902
49 13.216 13.216 0 1.64163 -1.09763 1.08135
50 14.868 14.868 1.652 0.727522 0.0113847 0.868253
51 0 0 3.304 -0.146864 0.892559 1.42421
52 1.652 1.652 4.956 -1.9744 -1.45009 -0.67816
53 3.304 0 3.304 -0.932492 0.924449 -1.70683
54 4.956 1.652 4.956 1.78128 0.437913 0.218498
55 6.608 0 3.304 -1.64933 -1.49774 -0.823485
56 8.26 1.652 4.956 -1.34389 -1.55735 -0.992349
57 9.912 0 3.304 0.929032 -0.737188 0.105093
58 11.564 1.652 4.956 -0.660764 1.55216 -0.624296
59 13.216 0 3.304 -0.859631 -1.55837 1.99894
60 14.868 1.652 4.956 1.73709 -1.8981 1.0948
61 0 3.304 3.304 1.5376 0.595152 -0.303236
62 1.652 4.956 4.956 0.108993 0.293256 -1.0259
63 3.304 3.304 3.304 0.299313 0.575374 1.22369
64 4.956 4.956 4.956 -0.718968 0.948615 -1.895
65 6.608 3.304 3.304 1.4778 1.20232 1.57751
66 8.26 4.956 4.956 -0.318278 0.53716 -1.35601
67 9.912 3.304 3.304 0.15862 1.57541 -0.108331
68 11.564 4.956 4.956 0.996535 -0.750179 -0.982965
69 13.216 3.304 3.304 1.73269 0.446045 0.0984784
70 14.868 4.956 4.956 0.814988 1.58587 -1.26599
71 0 6.608 3.304 0.295857 -1.18225 -0.881276
72 1.652 8.26 4.956 0.972537 -1.75739 0.435805
73 3.304 6.608 3.304 1.60547 -1.27627 -0.0544826
74 4.956 8.26 4.956 0.814069 -1.78435 1.90385
75 6.608 6.608 3.304 0.908327 1.29024 -1.19791
76 8.26 8.26 4.956 -1.97168 0.00161437 1.60961
77 9.912 6.608 3.304 0.0401183 1.39919 -0.70305
78 11.564 8.26 4.956 -0.856056 -1.83381 -0.539255
79 13.216 6.608 3.304 0.183943 0.733827 0.989784
80 14.868 8.26 4.956 -1.34446 0.880978 -0.101766
81 0 9.912 3.304 -1.30767 -0.344335 0.738424
82 1.652 11.564 4.956 -1.60989 1.52316 -1.18591
83 3.304 9.912 3.304 -1.60238 -1.00724 -0.477184
84 4.956 11.564 4.956 1.41569 -0.610958 1.42805
85 6.608 9.912 3.304 -1.86169 1.82167 -1.00167
86 8.26 11.564 4.956 1.23066 -0.427911 0.166524
87 9.912 9.912 3.304 1.86889 0.425483 0.517554
88 11.564 11.564 4.956 -0.377027 -1.17751 -1.79236
89 13.216 9.912 3.304 0.589537 -1.74341 -1.97606
90 14.868 11.564 4.956 -1.03854 0.796132 -1.90468
91 0 13.216 3.304 -0.33101 -0.216733 0.990573
92 1.652 14.868 4.956 -0.150429 1.32118 -0.337014
93 3.304 13.216 3.304 -0.341214 1.28045 -0.924728
94 4.956 14.868 4.956 -1.12236 0.123888 0.814778
95 6.608 13.216 3.304 -1.72236 -1.81741 1.4217
96 8.26 14.868 4.956 0.101564 0.155099 -1.65931
97 9.912 13.216 3.304 -0.094951 0.364063 -1.83987
98 11.564 14.868 4.956 -1.21487 -1.67118 1.00884
99 13.216 13.216 3.304 1.16132 0.868088 0.515444
100 14.868 14.868 4.956 0.37581 -1.1566 -0.253303
101 0 0 6.608 -1.51218 -1.80344 -1.06201
102 1.652 1.652 8.26 0.799876 1.05537 1.96362
103 3.304 0 6.608 -0.334153 -0.743188 -0.161468
104 4.956 1.652 8.26 1.0685 1.76177 1.9937
105 6.608 0 6.608 -1.84188 0.907132 0.946516
106 8.26 1.652 8.26 -0.35843 1.59349 -1.85683
107 9.912 0 6.608 -0.619926 -0.0460527 1.08194
108 11.564 1.652 8.26 -1.43083 1.67155 -1.55178
109 13.216 0 6.608 0.735524 1.73282 -1.70985
110 14.868 1.652 8.26 -0.655053 0.982556 1.28619
111 0 3.304 6.608 -0.319999 -0.218394 1.23117
112 1.652 4.956 8.26 0.268266 1.77512 1.12688
113 3.304 3.304 6.608 1.526 -1.36125 -0.125583
114 4.956 4.956 8.26 0.712842 -1.2967 -1.41417
115 6.608 3.304 6.608 0.205724 0.694363 1.53863
116 8.26 4.956 8.26 1.93201 -0.760457 -0.734557
117 9.912 3.304 6.608 0.667573 -1.76132 -1.35723
118 11.564 4.956 8.26 -0.240482 0.521233 0.506297
119 13.216 3.304 6.608 -0.474355 0.462285 -0.529228
120 14.868 4.956 8.26 -0.263992 -0.344483 -1.7504
121 0 6.608 6.608 1.84446 0.270008 -1.51734
122 1.652 8.26 8.26 0.325744 -1.77553 1.34291
123 3.304 6.608 6.608 -0.611252 0.894491 1.70736
124 4.956 8.26 8.26 1.53906 0.903188 -0.976935
125 6.608 6.608 6.608 -1.51851 0.505392 -0.205145
126 8.26 8.26 8.26 -0.789492 -1.53675 -0.783071
127 9.912 6.608 6.608 1.99271 1.46218 -0.084533
128 11.564 8.26 8.26 -1.34473 0.300963 -0.244186
129 13.216 6.608 6.608 -1.16474 0.0684983 -0.76426
130 14.868 8.26 8.26 0.324111 -1.05419 -0.97839
131 0 9.912 6.608 -1.83876 1.03159 0.718842
132 1.652 11.564 8.26 -0.825618 -1.20562 0.482093
133 3.304 9.912 6.608 -0.937464 1.86164 -1.05419
134 4.956 11.564 8.26 -0.493814 -0.700065 0.431765
135 6.608 9.912 6.608 -1.93121 0.224683 1.1157
136 8.26 11.564 8.26 -1.31407 0.743996 -1.09116
137 9.912 9.912 6.608 1.73518 -1.85917 -0.406919
138 11.564 11.564 8.26 -0.466303 -0.98812 -1.02044
139 13.216 9.912 6.608 -0.54406 -0.325829 1.97611
140 14.868 11.564 8.26 0.354662 1.47086 0.972197
141 0 13.216 6.608 0.787125 -0.013522 0.673114
142 1.652 14.868 8.26 -0.947529 1.6743 0.400633
143 3.304 13.216 6.608 1.87229 1.24032 0.593016
144 4.956 14.868 8.26 0.608666 1.92175 -0.569179
145 6.608 13.216 6.608 0.156269 -1.71855 1.39656
146 8.26 14.868 8.26 -0.13107 0.805556 -0.413985
147 9.912 13.216 6.608 1.47395 1.01632 1.44395
148 11.564 14.868 8.26 -0.192672 -0.569938 -1.1387
149 13.216 13.216 6.608 -0.656583 -0.603723 -1.69335
150 14.868 14.868 8.26 -0.919973 -1.88192 -0.469735
151 0 0 9.912 1.89164 0.575203 -1.66218
152 1.652 1.652 11.564 -0.0466808 -1.04123 -0.529296
153 3.304 0 9.912 -1.40124 0.130928 -1.56142
154 4.956 1.652 11.564 -0.269578 -1.68961 1.02575
155 6.608 0 9.912 -0.3077 1.29882 -1.98662
156 8.26 1.652 11.564 -1.56883 -0.425253 0.578755
157 9.912 0 9.912 -1.70512 -1.81442 -0.684589
158 11.564 1.652 11.564 -0.358154 -1.80172 -0.378502
159 13.216 0 9.912 -1.62018 1.64987 0.188827
160 14.868 1.652 11.564 -1.45446 -1.18663 1.90567
161 0 3.304 9.912 -0.764396 1.85557 1.41367
162 1.652 4.956 11.564 1.87244 -0.192086 0.837409
163 3.304 3.304 9.912 0.453836 -1.33097 1.92947
164 4.956 4.956 11.564 0.883702 1.81407 0.0599276
165 6.608 3.304 9.912 0.623553 -1.34214 -0.677753
166 8.26 4.956 11.564 1.87028 -0.353 -0.0533751
167 9.912 3.304 9.912 -0.688356 0.482558 -1.77247
168 11.564 4.956 11.564 1.01086 -1.31518 1.71085
169 13.216 3.304 9.912 -0.262325 -0.491722 1.89248
170 14.868 4.956 11.564 -1.14497 -1.60569 -0.749928
171 0 6.608 9.912 -0.194829 -0.614224 -1.16061
172 1.652 8.26 11.564 1.26735 0.566452 0.115863
173 3.304 6.608 9.912 -0.692931 0.0309159 -0.770416
174 4.956 8.26 11.564 1.46395 1.83794 -1.13695
175 6.608 6.608 9.912 0.632328 1.30941 -1.00418
176 8.26 8.26 11.564 -0.819617 -0.927569 -1.20174
177 9.912 6.608 9.912 -1.96803 0.882287 1.77889
178 11.564 8.26 11.564 0.742425 1.04146 1.66481
179 13.216 6.608 9.912 -1.62818 -0.191468 -0.837428
180 14.868 8.26 11.564 1.68865 0.575237 -1.0849
181 0 9.912 9.912 -1.6004 0.0368887 -0.965736
182 1.652 11.564 11.564 1.63438 1.73104 0.514522
183 3.304 9.912 9.912 0.960386 -0.803282 -0.343924
184 4.956 11.564 11.564 0.203601 1.21741 1.7093
185 6.608 9.912 9.912 1.83106 0.241054 -1.33892
186 8.26 11.564 11.564 1.72588 -1.25703 1.49815
187 9.912 9.912 9.912 1.59543 -1.04594 0.791876
188 11.564 11.564 11.564 -0.422191 0.131899 -1.32481
189 13.216 9.912 9.912 1.41089 -0.847445 1.70554
190 14.868 11.564 11.564 -1.03713 0.360384 0.697971
191 0 13.216 9.912 -1.59208 -0.943674 1.69996
192 1.652 14.868 11.564 1.76247 -1.94933 1.10674
193 3.304 13.216 9.912 1.00379 0.524347 0.539447
194 4.956 14.868 11.564 1.47216 -1.03256 0.351328
195 6.608 13.216 9.912 1.97439 -0.588157 -1.5702
196 8.26 14.868 11.564 0.884394 1.36965 1.7057
197 9.912 13.216 9.912 1.68157 -1.65612 0.641403
198 11.564 14.868 11.564 1.17181 0.0796111 0.943535
199 13.216 13.216 9.912 1.84431 1.65188 1.78612
200 14.868 14.868 11.564 1.50028 0.940259 -1.52352
201 0 0 13.216 0.956565 -0.653131 0.719112
202 1.652 1.652 14.868 -0.304767 -1.70492 1.2146
203 3.304 0 13.216 -0.560135 -0.939028 -0.672091
204 4.956 1.652 14.868 0.486994 0.754778 -0.932865
205 6.608 0 13.216 -1.10534 0.636307 -0.599245
206 8.26 1.652 14.868 1.75934 1.84687 0.179606
207 9.912 0 13.216 0.461446 1.85569 -0.552788
208 11.564 1.652 14.868 -1.95633 0.369734 0.944495
209 13.216 0 13.216 1.88588 0.334833 1.74573
210 14.868 1.652 14.868 -1.35598 0.370673 0.623024
211 0 3.304 13.216 -1.96858 -0.226011 1.9631
212 1.652 4.956 14.868 -1.14606 0.105648 0.013525
213 3.304 3.304 13.216 1.23379 -0.13893 1.08523
214 4.956 4.956 14.868 1.55381 -0.575515 1.68498
215 6.608 3.304 13.216 -0.446139 -0.0417864 0.368853
216 8.26 4.956 14.868 -1.19425 -1.01564 -0.803769
217 9.912 3.304 13.216 0.118937 -1.54105 -0.530388
218 11.564 4.956 14.868 0.365962 -1.72859 1.65286
219 13.216 3.304 13.216 -1.22117 1.07554 -0.966528
220 14.868 4.956 14.868 0.389528 0.075878 -1.45087
221 0 6.608 13.216 -1.05738 -1.97071 -0.290555
222 1.652 8.26 14.868 -0.00234331 -0.149876 -1.8379
223 3.304 6.608 13.216 -0.440083 1.16246 -0.574556
224 4.956 8.26 14.868 -1.69958 -1.21598 -0.592642
225 6.608 6.608 13.216 0.085724 -0.534208 -0.0792657
226 8.26 8.26 14.868 -1.32741 1.84438 -1.45247
227 9.912 6.608 13.216 0.303365 0.285825 -1.20716
228 11.564 8.26 14.868 -0.63677 -1.52346 1.44676
229 13.216 6.608 13.216 -1.20104 1.43788 1.90589
230 14.868 8.26 14.868 -1.11321 1.05973 -1.1488
231 0 9.912 13.216 -1.43805 0.905317 -1.40653
232 1.652 11.564 14.868 -0.0631867 -0.855691 -0.105947
233 3.304 9.912 13.216 0.833379 0.908586 1.24089
234 4.956 11.564 14.868 -1.38376 0.236714 -1.86257
235 6.608 9.912 13.216 -0.688219 -1.24866 1.31386
236 8.26 11.564 14.868 -1.9381 1.10578 0.342878
237 9.912 9.912 13.216 0.776187 1.21676 -1.15868
238 11.564 11.564 14.868 1.52915 -0.677993 1.26055
239 13.216 9.912 13.216 -0.850048 -1.42486 1.00586
240 14.868 11.564 14.868 -0.640139 -1.82021 -1.35334
241 0 13.216 13.216 0.750075 0.870289 1.29473
242 1.652 14.868 14.868 -1.66783 1.32501 -0.337099
243 3.304 13.216 13.216 -1.76996 -1.36952 1.70201
244 4.956 14.868 14.868 0.0508512 0.742795 -1.16478
245 6.608 13.216 13.216 -0.501341 1.54037 -1.61062
246 8.26 14.868 14.868 1.61088 0.998889 -1.80937
247 9.912 13.216 13.216 0.373568 1.39365 -1.33758
248 11.564 14.868 14.868 0.0887504 -1.97071 -0.25
249 13.216 13.216 13.216 1.69009 0.733836 1.14476
250 14.868 14.868 14.868 0.381458 1.24063 1.81307
ITEM: TIMESTEP
10
ITEM: NUMBER OF ATOMS
250
ITEM: BOX BOUNDS pp pp pp
0.0000000000000000e+00 1.6520000000000000e+01
0.0000000000000000e+00 1.6520000000000000e+01
0.0000000000000000e+00 1.6520000000000000e+01
ITEM: ATOMS id x y z vx vy vz
1 16.4416 0.0613469 0.0872118 -1.51623 0.906923 1.52826
2 1.57236 1.56432 1.57026 -1.0347 -1.33958 -1.24179
3 3.3551 0.0180706 0.0726731 0.845746 0.393413 0.952519
4 5.00427 1.62857 1.60496 0.492628 -0.0661238 -0.319028
5 6.56634 0.0459397 0.0836526 -0.672698 0.301008 1.03132
6 8.19755 1.62193 1.57065 -0.921315 -0.521697 -1.10702
7 9.87199 16.4538 0.0708649 -0.554624 -1.29317 1.2787
8 11.5105 1.72957 1.60758 -0.918958 1.25661 -0.571235
9 13.2897 0.0830826 16.4919 0.847048 1.43742 -0.112379
10 14.8856 1.66061 1.60478 -0.0734887 0.449731 -0.373806
11 0.0808204 3.27783 0.0908797 1.48132 -0.214956 1.50189
12 1.74395 5.033 1.56722 1.83559 1.09235 -1.46308
13 3.38593 3.37258 16.4934 1.43408 0.940336 -0.470131
14 4.88693 4.98945 1.67125 -0.9743 0.391781 0.432564
15 6.56356 3.24643 0.0993471 -0.62511 -0.819036 1.88319
16 8.22763 4.96287 1.69016 -0.423646 0.146652 0.566564
17 9.92535 3.30936 16.5038 -0.130335 0.33503 0.0167182
18 11.5883 4.92482 1.69803 0.619268 -0.47413 0.91033
19 13.1511 3.31266 16.4403 -0.894127 0.218674 -1.17722
20 14.8834 4.89368 1.67802 0.349303 -1.1099 0.165994
21 0.0783465 6.57734 0.0177151 1.03745 -0.535875 -0.012894
22 1.6451 8.17975 1.5855 -0.137896 -1.5695 -1.12239
23 3.31832 6.534 16.4434 0.382678 -1.19 -1.83085
24 4.94152 8.20804 1.59747 -0.38551 -0.94817 -1.18096
25 6.62966 6.52795 0.042188 0.647615 -1.39021 0.629813
26 8.27954 8.24611 1.60775 0.447205 -0.0117772 -0.993921
27 9.98566 6.54498 16.5029 1.16408 -1.19935 -0.252825
28 11.5891 8.32967 1.73892 0.323193 0.992054 1.25449
29 13.2231 6.64622 0.0411472 0.273916 0.530579 0.883073
30 14.8216 8.21862 1.63133 -0.461617 -0.956861 -0.66157
31 0.057674 9.91483 16.4751 1.04689 -0.218542 -0.983703
32 1.62061 11.528 1.67918 -0.852048 -0.54832 0.453278
33 3.23284 9.89799 0.0404152 -1.40835 -0.46829 0.580236
34 4.85887 11.474 1.63763 -2.23841 -1.50677 -0.413986
35 6.62935 9.90033 0.0305996 0.109795 -0.366739 0.402836
36 8.18204 11.5983 1.57192 -1.27675 0.386674 -1.12865
37 9.965 9.9574 0.0792147 0.817496 0.784238 1.25408
38 11.6033 11.5379 1.59072 0.933589 -0.252571 -0.885797
39 13.2702 9.99467 16.487 1.05889 1.00177 -0.635144
40 14.8635 11.4862 1.57986 0.394372 -1.419 -1.2984
41 16.4805 13.2702 16.435 -0.600591 0.863752 -1.31843
42 1.63594 14.9205 1.69237 -0.634225 0.810384 0.58363
43 3.27279 13.2581 16.4566 -0.662886 0.903944 -1.08384
44 4.8658 14.9344 1.68082 -1.63029 0.697554 0.36435
45 6.66975 13.1708 0.068422 0.444309 -0.405573 0.94709
46 8.24743 14.8287 1.61523 -0.574455 -0.779933 -0.566745
47 9.97786 13.2426 0.0723243 1.3225 0.512537 1.15818
48 11.5786 14.8944 1.73324 0.651786 0.549218 1.35347
49 13.2996 13.1707 0.0537513 1.72701 -0.501189 1.04108
50 14.9016 14.8697 1.69773 0.55411 0.0850878 1.00898
51 16.5063 0.0390478 3.36878 -0.548855 0.505767 0.971522
52 1.56227 1.58811 4.93058 -1.39407 -0.888688 -0.12564
53 3.25882 0.0549017 3.22698 -0.848779 1.46056 -1.17043
54 5.03903 1.67368 4.96255 1.41057 0.436906 -0.0597736
55 6.52792 16.4442 3.26823 -1.495 -1.54626 -0.475433
56 8.19377 1.5726 4.90162 -1.27075 -1.65618 -1.27798
57 9.95311 16.4883 3.30893 0.587973 -0.42223 0.0982098
58 11.5338 1.724 4.91779 -0.458704 1.18209 -1.07835
59 13.1737 16.4519 3.40137 -0.802114 -0.9557 1.862
60 14.9497 1.56937 5.00657 1.39738 -1.08765 0.830745
61 0.0782669 3.33163 3.28942 1.61788 0.453592 -0.270085
62 1.6613 4.96555 4.91013 0.353983 -0.0126348 -0.690952
63 3.31879 3.32373 3.36112 0.294963 0.0212422 0.971367
64 4.92517 4.99971 4.87075 -0.360742 0.6939 -1.2632
65 6.6778 3.35991 3.37932 1.19991 0.927359 1.34202
66 8.24886 4.98854 4.89507 -0.00906519 0.917513 -0.922883
67 9.91581 3.37668 3.2964 -0.0959686 1.19423 -0.243191
68 11.6107 4.92077 4.90584 0.807014 -0.599053 -1.04347
69 13.3056 3.31865 3.30874 1.89426 -0.0273512 0.101981
70 14.9127 5.02976 4.89714 1.05173 1.24159 -0.977672
71 0.0185233 6.55531 3.25797 0.542149 -0.781308 -1.01397
72 1.69832 8.17956 4.97315 0.849665 -1.28654 0.127079
73 3.37938 6.55509 3.30137 1.24751 -0.547392 -0.0530435
74 4.98813 8.17991 5.04186 0.247486 -1.18672 1.29798
75 6.6517 6.67713 3.24611 0.783746 1.5733 -1.05566
76 8.16275 8.26489 5.02995 -1.8715 0.298766 1.20923
77 9.91159 6.67685 3.26872 -0.121463 1.30909 -0.722377
78 11.5256 8.17486 4.92792 -0.565296 -1.39366 -0.625508
79 13.2272 6.64013 3.34696 0.309507 0.442682 0.569657
80 14.8053 8.30351 4.9547 -1.06648 0.84084 0.146941
81 16.4573 9.88839 3.33801 -1.13266 -0.726051 0.551607
82 1.57683 11.6358 4.90129 -1.26519 1.22771 -0.884461
83 3.22183 9.85772 3.28569 -1.73516 -1.2446 -0.148221
84 5.01336 11.5343 5.02359 0.568764 -0.549475 1.20431
85 6.5182 9.995 3.25688 -1.6556 1.30696 -0.816302
86 8.32208 11.5414 4.96374 1.24198 -0.49417 0.121365
87 9.99255 9.93363 3.32624 1.04795 0.423925 0.265738
88 11.549 11.5054 4.8665 -0.0999298 -1.12659 -1.74802
89 13.2474 9.83291 3.21288 0.735658 -1.19246 -1.4814
90 14.8135 11.5958 4.86547 -1.17626 0.271212 -1.60173
91 16.5054 13.2067 3.34423 -0.21479 -0.101606 0.39876
92 1.64706 14.9291 4.94186 0.00588932 1.00379 -0.172039
93 3.28424 13.2746 3.25994 -0.523175 0.939005 -0.783163
94 4.90325 14.8748 4.99414 -0.898557 0.164504 0.627304
95 6.52011 13.1282 3.37233 -1.81214 -1.61243 1.23687
96 8.25962 14.8708 4.87664 -0.231175 -0.16489 -1.44335
97 9.90587 13.227 3.21619 -0.184806 -0.0862999 -1.57512
98 11.5023 14.789 5.0038 -1.26595 -1.37091 0.801109
99 13.2692 13.254 3.32354 0.828793 0.544218 0.110656
100 14.8839 14.8088 4.94697 0.193952 -1.2275 -0.0141014
101 16.4462 16.4328 6.56816 -1.37706 -1.63685 -0.219142
102 1.68686 1.71225 8.3502 0.481527 1.54549 1.46015
103 3.28502 16.4937 6.59928 -0.487349 -0.0700806 -0.192708
104 5.00016 1.73899 8.35417 0.462215 1.67999 1.61451
105 6.51986 0.0434069 6.64821 -1.57644 0.813499 0.497323
106 8.24556 1.72633 8.16778 -0.142536 1.23441 -1.8109
107 9.87951 16.5172 6.6536 -0.706197 -0.0745869 0.538815
108 11.4962 1.73013 8.18627 -1.16638 1.31671 -1.29689
109 13.2455 0.0826688 6.52983 0.252832 1.47285 -1.23529
110 14.8346 1.70013 8.3247 -0.695594 0.929248 1.30406
111 16.5106 3.29432 6.66926 0.091277 -0.153389 1.20759
112 1.66845 5.031 8.31323 0.435452 0.900708 0.92144
113 3.37211 3.23624 6.60237 1.02634 -1.34374 -0.0787282
114 4.98941 4.89634 8.19817 0.550421 -0.950596 -0.845061
115 6.6211 3.34355 6.67164 0.382898 0.973484 0.676748
116 8.35622 4.9246 8.21603 1.8991 -0.334926 -1.19086
117 9.9399 3.22824 6.53214 0.285737 -0.963901 -1.85435
118 11.5509 4.98129 8.28445 -0.301828 0.459293 0.43383
119 13.1984 3.32789 6.57911 -0.101076 0.499618 -0.674281
120 14.8518 4.94195 8.17351 -0.446705 -0.139091 -1.66327
121 0.0865354 6.62047 6.53286 1.47197 0.190622 -1.43242
122 1.6647 8.18381 8.32316 0.0727693 -0.96764 1.09319
123 3.27788 6.64682 6.69121 -0.314138 0.527112 1.56061
124 5.02426 8.30285 8.21665 0.972243 0.742489 -0.603882
125 6.53891 6.62254 6.5992 -1.07533 -0.190822 -0.0949985
126 8.22693 8.18789 8.21712 -0.375987 -1.23681 -1.02131
127 10.0023 6.67034 6.60032 1.38819 0.773115 -0.286517
128 11.5029 8.271 8.25744 -0.928236 0.029025 0.367209
129 13.1609 6.60989 6.57217 -0.967232 -0.0291874 -0.609987
130 14.881 8.20413 8.2099 0.12968 -1.24875 -1.04315
131 16.4297 9.96255 6.63931 -1.74502 0.974494 0.427814
132 1.61384 11.5096 8.28627 -0.637053 -0.845834 0.619546
133 3.24956 10.0037 6.55506 -1.40249 1.77038 -1.0618
134 4.92747 11.5344 8.28663 -0.718687 -0.358157 0.737865
135 6.52124 9.92428 6.65834 -1.29403 0.296134 0.761892
136 8.21056 11.5937 8.20625 -0.259309 0.248659 -1.03967
137 9.99126 9.82395 6.58631 1.26301 -1.54121 -0.517125
138 11.545 11.5148 8.21394 -0.217103 -0.959719 -0.706128
139 13.1914 9.89742 6.70246 -0.367339 -0.237084 1.71062
140 14.877 11.6354 8.30554 -0.199847 1.32759 0.779843
141 0.0397545 13.2142 6.64302 0.804782 -0.0823391 0.761061
142 1.6067 14.941 8.27837 -0.80112 0.98653 0.260518
143 3.38834 13.2751 6.64083 1.29191 1.0448 0.797482
144 4.98513 14.9592 8.23753 0.503644 1.59125 -0.185656
145 6.61802 13.1393 6.67225 0.255979 -1.12405 1.02426
146 8.25189 14.9044 8.23735 -0.248664 0.547344 -0.56147
147 9.97758 13.2576 6.67506 0.918829 0.405555 1.13361
148 11.5612 14.844 8.20774 0.240983 -0.270527 -0.821422
149 13.1833 13.1813 6.52779 -0.639557 -0.889012 -1.40781
150 14.8197 14.7826 8.23619 -1.04056 -1.33907 -0.505641
151 0.0830727 0.0297083 9.83437 1.13712 0.654282 -1.29418
152 1.64632 1.60357 11.5478 -0.247864 -0.825852 0.10482
153 3.24099 0.00154827 9.84088 -0.939935 -0.17014 -1.11038
154 4.94104 1.57048 11.6129 -0.373575 -1.49497 0.85375
155 6.5958 0.0600293 9.81809 -0.0874577 0.995437 -1.62686
156 8.18487 1.63245 11.5867 -1.35651 -0.322498 0.197152
157 9.83091 16.4344 9.87645 -1.41581 -1.48416 -0.755173
158 11.5402 1.56285 11.5432 -0.720122 -1.70051 -0.488537
159 13.1373 0.0782885 9.91352 -1.45762 1.3619 -0.316952
160 14.8028 1.59163 11.6557 -0.989052 -1.2134 1.66109
161 16.4844 3.39231 9.98475 -0.574469 1.55648 1.51587
162 1.74333 4.94305 11.6093 1.72512 -0.395829 1.03355
163 3.32965 3.24566 10.0126 0.639857 -0.817913 2.19541
164 5.00314 5.04492 11.5629 1.05715 1.70035 -0.194118
165 6.64127 3.24878 9.88745 0.780302 -0.57724 -0.0850966
166 8.34717 4.93313 11.5613 1.46468 -0.683657 -0.041607
167 9.8801 3.32247 9.82967 -0.520483 0.121687 -1.36882
168 11.6077 4.89674 11.6449 0.543121 -0.861338 1.38568
169 13.1957 3.2787 9.99966 -0.723528 -0.553136 1.4427
170 14.81 4.88604 11.5289 -1.18936 -0.943664 -0.566456
171 16.5047 6.5745 9.86084 -0.552307 -0.781528 -0.733116
172 1.71131 8.29164 11.5675 1.01781 0.773372 -0.0415132
173 3.28239 6.60991 9.87903 0.13246 0.050152 -0.385439
174 5.02947 8.34956 11.506 1.48737 1.68486 -1.20204
175 6.63542 6.66249 9.85975 0.353178 0.619558 -1.11931
176 8.22015 8.22129 11.5119 -0.761314 -0.423733 -0.668789
177 9.82451 6.64847 9.99638 -1.26399 0.643439 1.44357
178 11.6016 8.30486 11.6439 0.748018 0.576825 1.43713
179 13.1361 6.59905 9.87424 -1.52766 -0.147266 -0.575925
180 14.9493 8.27715 11.5104 1.48888 -0.164268 -1.02229
181 16.4471 9.91373 9.86762 -1.15976 0.029879 -0.740904
182 1.7296 11.6421 11.5852 1.37028 1.19614 0.226851
183 3.35057 9.87782 9.8959 0.859458 -0.430205 -0.287522
184 4.97336 11.6224 11.642 0.631825 1.05916 1.24739
185 6.70121 9.92909 9.84992 1.93227 0.537792 -1.04346
186 8.34072 11.5048 11.6347 1.35364 -1.00752 1.20851
187 9.98754 9.86025 9.94721 1.33249 -1.00484 0.542243
188 11.5548 11.5713 11.5051 0.341842 0.152508 -0.846715
189 13.2838 9.86997 9.99228 1.23133 -0.820741 1.39062
190 14.8166 11.5831 11.6024 -1.01426 0.420226 0.903079
191 16.4514 13.1724 9.99573 -0.889359 -0.724627 1.61514
192 1.73662 14.7738 11.6129 1.52878 -1.73485 0.699853
193 3.35646 13.2411 9.93321 1.15565 0.446323 0.187265
194 5.02726 14.8201 11.5726 1.29871 -0.760813 -0.229832
195 6.70752 13.1892 9.84201 2.00299 -0.409451 -1.01708
196 8.30345 14.9358 11.64 0.832785 1.33014 1.13331
197 9.99483 13.1383 9.9407 1.58825 -1.30905 0.406303
198 11.6262 14.8755 11.6096 1.39374 0.305221 0.845653
199 13.3006 13.2975 9.99903 1.35055 1.56933 1.65446
200 14.9456 14.9231 11.495 1.66114 1.46663 -1.0666
201 0.0448977 16.4938 13.2476 0.742401 -0.229604 0.428407
202 1.63982 1.57114 14.9269 -0.117825 -1.42551 1.10431
203 3.27625 16.4736 13.1861 -0.539706 -0.900139 -0.437823
204 4.97867 1.6838 14.8251 0.392206 0.378118 -0.666573
205 6.55649 0.0311377 13.1927 -0.849799 0.563161 -0.182644
206 8.33924 1.73731 14.8786 1.19604 1.39451 0.279588
207 9.93675 0.0886483 13.1922 0.538829 1.56475 -0.304118
208 11.4696 1.66169 14.9141 -1.72513 -0.186158 0.88319
209 13.3031 0.0126614 13.3048 1.39893 0.0583928 1.82963
210 14.8039 1.67767 14.8982 -1.09702 0.832117 0.563777
211 16.4292 3.28618 13.3108 -1.48877 -0.641921 1.73011
212 1.59813 4.95474 14.8619 -0.925935 -0.306024 -0.407986
213 3.36128 3.29782 13.2699 0.96033 -0.0780587 1.04969
214 5.03464 4.92978 14.9425 1.63081 -0.420939 1.05913
215 6.58669 3.30296 13.2288 -0.379244 0.017747 0.00627544
216 8.20598 4.90847 14.8311 -0.827166 -0.814886 -0.593118
217 9.91724 3.23051 13.1846 0.0796609 -1.30633 -0.83822
218 11.5776 4.87793 14.9441 0.0537983 -1.1678 1.19511
219 13.1546 3.34966 13.1768 -1.19265 0.521467 -0.354582
220 14.8814 4.96121 14.8064 -0.0325604 0.170313 -0.754766
221 16.4667 6.51491 13.1943 -1.0656 -1.62562 -0.754907
222 1.64549 8.25191 14.7727 -0.408365 -0.188676 -2.03876
223 3.28603 6.66127 13.1841 -0.187037 0.846766 -0.787772
224 4.876 8.19957 14.8424 -1.36911 -1.17407 -0.360103
225 6.61321 6.58257 13.212 0.158793 -0.435857 -0.0763483
226 8.20186 8.34522 14.8014 -0.78691 1.3858 -1.0606
227 9.92459 6.62102 13.1643 0.13973 0.217496 -0.669047
228 11.5248 8.19082 14.9436 -1.08093 -1.05529 1.63301
229 13.1581 6.67438 13.3068 -1.07739 1.05721 1.63352
230 14.8206 8.30478 14.8143 -0.583767 0.541907 -0.908836
231 16.4561 9.95365 13.142 -0.926297 0.675622 -1.63046
232 1.64233 11.5214 14.8658 -0.469712 -0.836346 0.0837693
233 3.34144 9.95191 13.2698 0.552416 0.540988 0.696761
234 4.89316 11.5793 14.7886 -0.954941 0.462842 -0.981028
235 6.57426 9.85673 13.278 -0.676027 -0.764631 1.06543
236 8.16973 11.6205 14.88 -1.53634 1.17 0.00933338
237 9.95006 9.97198 13.1718 0.754403 1.13529 -0.275181
238 11.6327 11.5354 14.9252 1.04793 -0.333943 0.897663
239 13.1712 9.84619 13.263 -0.984143 -1.05848 0.809106
240 14.8423 11.479 14.7989 -0.232336 -1.42643 -1.43153
241 0.030736 13.2573 13.2796 0.331929 0.720634 1.20694
242 1.57471 14.9363 14.862 -1.25287 1.42451 0.359399
243 3.22264 13.157 13.303 -1.30844 -0.746496 1.81869
244 4.96088 14.9049 14.8169 0.179566 0.724382 -0.724629
245 6.59185 13.2903 13.1429 0.0977837 1.34511 -1.10456
246 8.33579 14.9192 14.7829 1.32317 1.07465 -1.47622
247 9.9353 13.2801 13.1556 0.660732 1.04083 -0.944797
248 11.5741 14.7751 14.8626 0.443379 -1.60965 0.195472
249 13.3015 13.2555 13.2739 1.75478 0.923154 1.19212
250 14.8852 14.929 14.9573 0.259272 1.19069 1.71619
ITEM: TIMESTEP
20
ITEM: NUMBER OF ATOMS
250
ITEM: BOX BOUNDS pp pp pp
0.0000000000000000e+00 1.6520000000000000e+01
0.0000000000000000e+00 1.6520000000000000e+01
0.0000000000000000e+00 1.6520000000000000e+01
ITEM: ATOMS id x y z vx vy vz
1 16.3635 0.0723882 0.137673 -1.46274 -0.475426 0.317776
2 1.58482 1.53956 1.55787 1.80604 0.698624 1.0562
3 3.3783 0.044672 0.0654923 -0.0500732 0.661251 -1.49803
4 4.97575 1.66395 1.66332 -1.74445 1.48559 2.8845
5 6.54681 16.5101 0.0666619 -0.019421 -2.68172 -1.92186
6 8.18983 1.59903 1.57582 0.793747 -0.447766 1.67973
7 9.87096 16.3916 0.124535 0.666956 -1.02606 0.74128
8 11.4788 1.76049 1.61475 -0.1954 -0.305731 1.08689
9 13.2583 0.133864 0.0232965 -2.48708 0.402325 2.48492
10 14.8365 1.71978 1.65308 -1.88841 1.93319 2.54064
11 0.143288 3.30455 0.130078 0.798312 1.39738 -0.276607
12 1.84139 5.03963 1.51936 1.91985 -1.09448 -0.226685
13 3.43792 3.37041 16.4736 0.444642 -1.33583 -0.300933
14 4.88731 4.97861 1.69473 1.33271 -0.929445 0.439694
15 6.56256 3.24692 0.179548 0.798448 1.05299 1.02684
16 8.2321 4.97312 1.70113 0.746948 0.313891 -0.181435
17 9.87273 3.35324 0.026678 -2.08068 1.43425 1.86434
18 11.6378 4.9164 1.74359 1.37241 0.235426 0.802221
19 13.1491 3.32439 16.436 0.937866 0.248188 1.46091
20 14.9118 4.85507 1.64636 0.864372 -0.178363 -1.57611
21 0.0724832 6.55277 16.4864 -1.51283 -0.480413 -2.35636
22 1.64196 8.10171 1.54782 0.0730548 -1.4106 -0.280604
23 3.347 6.50036 16.3111 0.645146 -0.0778975 -3.39561
24 4.90781 8.16803 1.5203 -1.02743 -0.524737 -1.91501
25 6.68628 6.48345 0.0500667 1.60492 -0.0339256 -0.523406
26 8.30834 8.27803 1.53763 0.637889 1.45489 -1.83569
27 10.0049 6.4845 16.5082 -0.787416 -1.12083 0.679235
28 11.5837 8.33273 1.74447 -0.586987 -1.12318 -1.41152
29 13.2453 6.64249 0.0882792 0.48703 -0.945885 0.801531
30 14.8581 8.15613 1.57228 2.30707 -1.42014 -1.64745
31 0.0960445 9.86493 16.4131 0.2323 -2.05798 -1.44472
32 1.54933 11.5142 1.69154 -2.01761 0.023847 -0.100661
33 3.1555 9.84741 0.0375455 -1.6307 -1.68216 -1.02922
34 4.70717 11.4289 1.60315 -3.74075 -0.00802531 -0.921132
35 6.59625 9.86955 0.0264152 -1.66189 -0.766841 -0.752006
36 8.14888 11.5817 1.56885 0.0511339 -1.1359 1.20568
37 9.97727 9.98894 0.106915 -0.540109 0.512083 -0.442723
38 11.6752 11.5549 1.58349 2.01504 1.01724 0.785036
39 13.3209 9.9662 16.4569 0.822101 -2.5551 -0.488427
40 14.9458 11.4252 1.53099 3.12332 -0.85874 -0.488171
41 16.4719 13.2849 16.4111 0.410812 -0.555945 0.714771
42 1.56846 14.9404 1.69878 -2.07771 -0.105553 -0.448975
43 3.22917 13.3111 16.4223 -1.13399 1.09818 -0.034417
44 4.79701 14.8993 1.67688 -0.973405 -2.38997 -0.633815
45 6.59475 13.2071 0.0669963 -3.84519 1.96276 -1.26912
46 8.18094 14.7875 1.6071 -2.15442 -0.847966 0.408651
47 10.0432 13.2658 0.104583 1.03161 0.315232 -0.0464832
48 11.6497 14.9216 1.77339 2.18422 0.425078 0.00848898
49 13.3972 13.1883 0.102354 2.05204 1.36244 0.766719
50 14.9149 14.8829 1.76218 -0.220891 0.530882 1.51527
51 16.4472 0.0303854 3.37888 -1.80702 -0.981005 -0.722378
52 1.53256 1.58721 4.9725 0.413276 1.08622 2.04054
53 3.21896 0.165813 3.21068 -0.646841 2.7311 0.890158
54 5.08564 1.69935 4.93716 0.167947 0.566258 -1.01917
55 6.45838 16.3581 3.26852 -1.1718 -1.78478 0.543106
56 8.1348 1.47586 4.81341 -0.903834 -2.09008 -2.19001
57 9.95412 16.4855 3.31441 -0.786849 0.302441 0.0696247
58 11.5301 1.75523 4.82313 0.43383 -0.147908 -2.69062
59 13.1404 16.4477 3.49651 -0.341048 1.0707 1.8076
60 14.9963 1.58368 5.03401 0.247711 2.06765 0.239738
61 0.17011 3.34214 3.27627 1.93122 -0.162943 -0.241644
62 1.70356 4.9453 4.90031 1.48509 -0.814603 0.514607
63 3.33651 3.28625 3.39243 0.438722 -1.55677 0.101569
64 4.94085 5.01324 4.86054 1.13829 -0.288093 1.20747
65 6.71594 3.38837 3.42781 0.122842 0.120404 0.322459
66 8.27533 5.07593 4.8772 1.17879 2.75036 0.309336
67 9.88932 3.40962 3.27223 -1.07833 -0.130454 -0.759702